! TOUCHSTONE file generated by CST MICROWAVE STUDIO
! Date and time: Wed Feb 19 21:01:26 2025
! Project name: MSLineZp1.cst
! Parameters = {Zp1=50; Zp2=50; C=0; L=100; Lamb=0.05; Li=0; R=1e-13; W=20; dlump=2; er=2; h=0.8; w1=2.62}
! Header version: 2024
! Port assignment regex: !\s*Touchstone port\s*([0-9]+)\s*=\s*(CST MWS port|CST DES external port|CST DES block port)\s*(.+)\s* \(\"(.*)\"\)(\s*mode\s*([0-9]+))?.*
! Touchstone port assignment:
! Touchstone port 1 = CST MWS port 1 ("")
! Touchstone port 2 = CST MWS port 2 ("")
# GHz S MA R 50
0                    0.005424439             180        0.9999694              -0        0.9999694              -0      0.005424439   -1.001791e-05
0.01                 0.005424421        179.9225        0.9999694       -1.598544        0.9999693       -1.598544      0.005424421       -3.119603
0.02                 0.005424366         179.845        0.9999694       -3.197088        0.9999694       -3.197087      0.005424366       -6.239169
0.03                 0.005424274        179.7675        0.9999693       -4.795632        0.9999693       -4.795633      0.005424274       -9.358763
0.04                 0.005424145          179.69        0.9999692       -6.394177        0.9999692       -6.394178      0.005424145       -12.47833
0.05                 0.005423979        179.6125        0.9999692       -7.992722        0.9999692       -7.992722      0.005423979       -15.59792
0.06                 0.005423777         179.535        0.9999691       -9.591268         0.999969       -9.591269      0.005423777       -18.71757
0.07                 0.005423538        179.4575        0.9999689       -11.18982        0.9999689       -11.18982      0.005423538       -21.83717
0.08                 0.005423262        179.3801        0.9999689       -12.78836        0.9999689       -12.78836      0.005423263       -24.95678
0.09                 0.005422949        179.3026        0.9999687       -14.38691        0.9999687       -14.38691       0.00542295       -28.07643
0.1                    0.0054226        179.2252        0.9999686       -15.98546        0.9999686       -15.98546      0.005422599       -31.19611
0.11                 0.005422213        179.1477        0.9999683       -17.58401        0.9999683       -17.58401      0.005422213       -34.31576
0.12                  0.00542179        179.0703        0.9999682       -19.18257        0.9999682       -19.18257      0.005421791       -37.43548
0.13                  0.00542133        178.9929        0.9999679       -20.78112        0.9999678       -20.78112      0.005421329       -40.55516
0.14                 0.005420833        178.9156        0.9999677       -22.37968        0.9999677       -22.37968      0.005420832       -43.67492
0.15                 0.005420299        178.8382        0.9999674       -23.97824        0.9999674       -23.97824      0.005420298       -46.79468
0.16                 0.005419729        178.7609        0.9999672        -25.5768        0.9999672        -25.5768       0.00541973       -49.91445
0.17                 0.005419121        178.6836        0.9999668       -27.17536        0.9999668       -27.17536      0.005419121        -53.0343
0.18                 0.005418476        178.6063        0.9999665       -28.77393        0.9999665       -28.77393      0.005418477       -56.15412
0.19                 0.005417795         178.529        0.9999662       -30.37249        0.9999662       -30.37249      0.005417796       -59.27399
0.2                  0.005417078        178.4518        0.9999659       -31.97106        0.9999659       -31.97106      0.005417078       -62.39391
0.21                 0.005416322        178.3746        0.9999656       -33.56964        0.9999656       -33.56964      0.005416322       -65.51388
0.22                 0.005415531        178.2975        0.9999652       -35.16821        0.9999652       -35.16821      0.005415531       -68.63386
0.23                 0.005414702        178.2203        0.9999648       -36.76679        0.9999648       -36.76679      0.005414702       -71.75389
0.24                 0.005413837        178.1432        0.9999644       -38.36537        0.9999643       -38.36537      0.005413836       -74.87397
0.25                 0.005412934        178.0662        0.9999639       -39.96396        0.9999639       -39.96396      0.005412934       -77.99406
0.26                 0.005411995        177.9891        0.9999634       -41.56255        0.9999634       -41.56255      0.005411995        -81.1142
0.27                 0.005411019        177.9122         0.999963       -43.16115         0.999963       -43.16115      0.005411018       -84.23445
0.28                 0.005410005        177.8352        0.9999626       -44.75974        0.9999626       -44.75974      0.005410005        -87.3547
0.29                 0.005408955        177.7583        0.9999622       -46.35834        0.9999623       -46.35834      0.005408955         -90.475
0.3                  0.005407868        177.6815        0.9999615       -47.95695        0.9999615       -47.95695      0.005407869       -93.59536
0.31                 0.005406744        177.6047        0.9999611       -49.55555        0.9999612       -49.55554      0.005406744       -96.71577
0.32                 0.005405584        177.5279        0.9999605       -51.15416        0.9999605       -51.15416      0.005405583       -99.83624
0.33                 0.005404386        177.4512        0.9999599       -52.75278        0.9999598       -52.75278      0.005404386       -102.9568
0.34                 0.005403151        177.3746        0.9999594        -54.3514        0.9999594        -54.3514      0.005403151       -106.0774
0.35                 0.005401881         177.298        0.9999588       -55.95003        0.9999588       -55.95003       0.00540188        -109.198
0.36                 0.005400572        177.2215        0.9999581       -57.54867        0.9999581       -57.54867      0.005400572       -112.3188
0.37                 0.005399227         177.145        0.9999575       -59.14729        0.9999575       -59.14729      0.005399227       -115.4396
0.38                 0.005397846        177.0686        0.9999569       -60.74594        0.9999568       -60.74593      0.005397845       -118.5604
0.39                 0.005396428        176.9922        0.9999562       -62.34458        0.9999561       -62.34458      0.005396427       -121.6814
0.4                  0.005394972         176.916        0.9999555       -63.94323        0.9999555       -63.94323      0.005394971       -124.8024
0.41                  0.00539348        176.8397        0.9999548        -65.5419        0.9999548        -65.5419      0.005393479       -127.9235
0.42                 0.005391951        176.7636         0.999954       -67.14056         0.999954       -67.14056       0.00539195       -131.0447
0.43                 0.005390386        176.6875        0.9999533       -68.73922        0.9999533       -68.73922      0.005390385        -134.166
0.44                 0.005388785        176.6115        0.9999525        -70.3379        0.9999525        -70.3379      0.005388784       -137.2873
0.45                 0.005387146        176.5356        0.9999517       -71.93659        0.9999517       -71.93659      0.005387145       -140.4088
0.46                 0.005385471        176.4598         0.999951       -73.53527         0.999951       -73.53527       0.00538547       -143.5303
0.47                  0.00538376         176.384        0.9999501       -75.13397          0.99995       -75.13397      0.005383759        -146.652
0.48                 0.005382012        176.3084        0.9999494       -76.73268        0.9999494       -76.73268      0.005382011       -149.7737
0.49                 0.005380227        176.2328        0.9999485       -78.33138        0.9999485       -78.33138      0.005380227       -152.8956
0.5                  0.005378407        176.1573        0.9999477       -79.93009        0.9999477       -79.93009      0.005378406       -156.0175
0.51                  0.00537655        176.0819        0.9999468       -81.52881        0.9999468       -81.52881      0.005376549       -159.1395
0.52                 0.005374657        176.0066        0.9999458       -83.12754        0.9999458       -83.12754      0.005374656       -162.2617
0.53                 0.005372728        175.9313        0.9999449       -84.72628        0.9999448       -84.72628      0.005372727       -165.3839
0.54                 0.005370763        175.8563         0.999944       -86.32502         0.999944       -86.32502      0.005370762       -168.5063
0.55                 0.005368762        175.7812        0.9999431       -87.92378         0.999943       -87.92378      0.005368762       -171.6288
0.56                 0.005366725        175.7063        0.9999421       -89.52253        0.9999421       -89.52253      0.005366725       -174.7514
0.57                 0.005364653        175.6315         0.999941       -91.12129        0.9999409       -91.12129      0.005364652       -177.8741
0.58                 0.005362544        175.5568          0.99994       -92.72007          0.99994       -92.72007      0.005362544        179.0031
0.59                   0.0053604        175.4822         0.999939       -94.31886        0.9999389       -94.31886        0.0053604        175.8801
0.6                  0.005358221        175.4077        0.9999381       -95.91764        0.9999381       -95.91764      0.005358221        172.7569
0.61                 0.005356006        175.3334         0.999937       -97.51645         0.999937       -97.51645      0.005356006        169.6337
0.62                 0.005353756        175.2591        0.9999359       -99.11523        0.9999359       -99.11523      0.005353757        166.5104
0.63                 0.005351471         175.185        0.9999348       -100.7141        0.9999348       -100.7141      0.005351472        163.3868
0.64                 0.005349151         175.111        0.9999337       -102.3129        0.9999337       -102.3129      0.005349151        160.2632
0.65                 0.005346796        175.0371        0.9999325       -103.9117        0.9999324       -103.9117      0.005346796        157.1394
0.66                 0.005344406        174.9634        0.9999315       -105.5106        0.9999315       -105.5106      0.005344407        154.0155
0.67                 0.005341982        174.8898        0.9999303       -107.1094        0.9999303       -107.1094      0.005341983        150.8914
0.68                 0.005339523        174.8163         0.999929       -108.7083         0.999929       -108.7083      0.005339524        147.7671
0.69                 0.005337031         174.743        0.9999279       -110.3071        0.9999279       -110.3072      0.005337031        144.6428
0.7                  0.005334504        174.6698        0.9999267        -111.906        0.9999267        -111.906      0.005334504        141.5182
0.71                 0.005331942        174.5967        0.9999255       -113.5049        0.9999255       -113.5049      0.005331943        138.3935
0.72                 0.005329348        174.5238        0.9999241       -115.1038        0.9999241       -115.1038      0.005329348        135.2686
0.73                 0.005326719         174.451         0.999923       -116.7027        0.9999229       -116.7027       0.00532672        132.1436
0.74                 0.005324057        174.3783        0.9999216       -118.3016        0.9999216       -118.3016      0.005324058        129.0184
0.75                 0.005321362        174.3059        0.9999202       -119.9006        0.9999201       -119.9006      0.005321363         125.893
0.76                 0.005318634        174.2335         0.999919       -121.4995         0.999919       -121.4995      0.005318635        122.7675
0.77                 0.005315872        174.1614        0.9999178       -123.0985        0.9999178       -123.0985      0.005315873        119.6417
0.78                 0.005313079        174.0894        0.9999163       -124.6974        0.9999163       -124.6974       0.00531308        116.5158
0.79                 0.005310253        174.0175        0.9999149       -126.2964         0.999915       -126.2964      0.005310254        113.3898
0.8                  0.005307395        173.9458        0.9999136       -127.8954        0.9999136       -127.8954      0.005307395        110.2635
0.81                 0.005304504        173.8743        0.9999121       -129.4944        0.9999121       -129.4944      0.005304505         107.137
0.82                 0.005301582        173.8029        0.9999106       -131.0934        0.9999106       -131.0934      0.005301582        104.0104
0.83                 0.005298628        173.7317        0.9999093       -132.6924        0.9999093       -132.6924      0.005298628        100.8836
0.84                 0.005295643        173.6607        0.9999078       -134.2914        0.9999079       -134.2914      0.005295643        97.75656
0.85                 0.005292627        173.5898        0.9999063       -135.8904        0.9999064       -135.8904      0.005292627        94.62937
0.86                  0.00528958        173.5191        0.9999048       -137.4895        0.9999049       -137.4895      0.005289579        91.50191
0.87                 0.005286502        173.4486        0.9999031       -139.0886         0.999903       -139.0886      0.005286502        88.37429
0.88                 0.005283394        173.3783        0.9999018       -140.6876        0.9999019       -140.6876      0.005283393         85.2465
0.89                 0.005280256        173.3081        0.9999001       -142.2867           0.9999       -142.2867      0.005280256        82.11849
0.9                  0.005277087        173.2381        0.9998985       -143.8858        0.9998984       -143.8858      0.005277087        78.99026
0.91                  0.00527389        173.1684        0.9998969       -145.4849        0.9998969       -145.4849      0.005273889        75.86176
0.92                 0.005270663        173.0988        0.9998954       -147.0841        0.9998955       -147.0841      0.005270662        72.73315
0.93                 0.005267406        173.0293        0.9998938       -148.6832        0.9998939       -148.6832      0.005267406        69.60427
0.94                 0.005264121        172.9601        0.9998922       -150.2823        0.9998923       -150.2823       0.00526412        66.47522
0.95                 0.005260807        172.8911        0.9998906       -151.8815        0.9998907       -151.8815      0.005260807        63.34595
0.96                 0.005257465        172.8222        0.9998887       -153.4807        0.9998887       -153.4807      0.005257464        60.21647
0.97                 0.005254095        172.7536         0.999887       -155.0799         0.999887       -155.0799      0.005254095        57.08672
0.98                 0.005250698        172.6851        0.9998853       -156.6791        0.9998853       -156.6791      0.005250697        53.95679
0.99                 0.005247273        172.6168        0.9998837       -158.2783        0.9998838       -158.2783      0.005247272         50.8266
1                     0.00524382        172.5488        0.9998819       -159.8775        0.9998819       -159.8775      0.005243819        47.69624
1.01                 0.005240341        172.4809        0.9998802       -161.4767        0.9998801       -161.4767       0.00524034        44.56561
1.02                 0.005236836        172.4132        0.9998783        -163.076        0.9998783        -163.076      0.005236835        41.43481
1.03                 0.005233304        172.3457        0.9998766       -164.6753        0.9998766       -164.6753      0.005233303        38.30374
1.04                 0.005229745        172.2785        0.9998747       -166.2746        0.9998747       -166.2746      0.005229744        35.17245
1.05                 0.005226162        172.2114        0.9998728       -167.8739        0.9998728       -167.8739      0.005226161        32.04089
1.06                 0.005222553        172.1445         0.999871       -169.4732         0.999871       -169.4732      0.005222552        28.90917
1.07                 0.005218918        172.0778        0.9998692       -171.0725        0.9998692       -171.0725      0.005218917        25.77717
1.08                 0.005215259        172.0114        0.9998671       -172.6718         0.999867       -172.6718      0.005215258        22.64496
1.09                 0.005211575        171.9451        0.9998652       -174.2712        0.9998652       -174.2712      0.005211574        19.51252
1.1                  0.005207867         171.879        0.9998634       -175.8706        0.9998634       -175.8706      0.005207866        16.37981
1.11                 0.005204135        171.8132        0.9998614         -177.47        0.9998613         -177.47      0.005204135        13.24689
1.12                  0.00520038        171.7475        0.9998594       -179.0694        0.9998594       -179.0694       0.00520038        10.11369
1.13                 0.005196601        171.6821        0.9998574        179.3312        0.9998574        179.3312        0.0051966        6.980363
1.14                 0.005192798        171.6168        0.9998554        177.7318        0.9998553        177.7318      0.005192798        3.846727
1.15                 0.005188973        171.5518        0.9998534        176.1323        0.9998533        176.1323      0.005188973       0.7128852
1.16                 0.005185125         171.487        0.9998514        174.5329        0.9998513        174.5329      0.005185124       -2.421243
1.17                 0.005181255        171.4223        0.9998494        172.9334        0.9998494        172.9334      0.005181255       -5.555533
1.18                 0.005177364        171.3579        0.9998472        171.3339        0.9998471        171.3339      0.005177363       -8.690126
1.19                  0.00517345        171.2937        0.9998451        169.7344         0.999845        169.7344       0.00517345        -11.8249
1.2                  0.005169515        171.2297        0.9998431        168.1349        0.9998431        168.1349      0.005169515       -14.95995
1.21                 0.005165558        171.1659         0.999841        166.5353         0.999841        166.5353      0.005165558       -18.09524
1.22                 0.005161582        171.1023        0.9998387        164.9357        0.9998387        164.9357      0.005161581       -21.23076
1.23                 0.005157584        171.0389        0.9998365        163.3362        0.9998365        163.3362      0.005157583        -24.3665
1.24                 0.005153566        170.9756        0.9998344        161.7366        0.9998345        161.7366      0.005153566       -27.50251
1.25                 0.005149527        170.9126        0.9998322         160.137        0.9998322         160.137      0.005149527       -30.63871
1.26                  0.00514547        170.8498        0.9998299        158.5373        0.9998299        158.5373      0.005145469       -33.77516
1.27                 0.005141391        170.7872        0.9998278        156.9377        0.9998279        156.9377      0.005141391       -36.91184
1.28                 0.005137294        170.7248        0.9998254         155.338        0.9998254         155.338      0.005137294       -40.04879
1.29                 0.005133178        170.6626        0.9998232        153.7384        0.9998233        153.7384      0.005133178       -43.18591
1.3                  0.005129043        170.6006        0.9998208        152.1387        0.9998208        152.1387      0.005129043        -46.3233
1.31                 0.005124889        170.5388        0.9998186        150.5389        0.9998186        150.5389      0.005124889        -49.4609
1.32                 0.005120716        170.4772        0.9998163        148.9392        0.9998163        148.9392      0.005120716       -52.59874
1.33                 0.005116526        170.4157        0.9998139        147.3394         0.999814        147.3394      0.005116526       -55.73684
1.34                 0.005112317        170.3545        0.9998116        145.7397        0.9998117        145.7397      0.005112317       -58.87513
1.35                  0.00510809        170.2935        0.9998092        144.1399        0.9998092        144.1399       0.00510809       -62.01369
1.36                 0.005103845        170.2326        0.9998067        142.5401        0.9998067        142.5401      0.005103845       -65.15244
1.37                 0.005099583        170.1719        0.9998042        140.9403        0.9998043        140.9402      0.005099583       -68.29142
1.38                 0.005095305        170.1114        0.9998019        139.3404         0.999802        139.3404      0.005095305       -71.43059
1.39                 0.005091007        170.0511        0.9997993        137.7406        0.9997993        137.7406      0.005091007       -74.57002
1.4                  0.005086694         169.991        0.9997969        136.1407        0.9997969        136.1407      0.005086694       -77.70965
1.41                 0.005082365        169.9311        0.9997943        134.5408        0.9997944        134.5408      0.005082364       -80.84952
1.42                 0.005078017        169.8713        0.9997919        132.9409        0.9997919        132.9409      0.005078017       -83.98959
1.43                 0.005073654        169.8117        0.9997895        131.3409        0.9997895        131.3409      0.005073653       -87.12986
1.44                 0.005069274        169.7523        0.9997867         129.741        0.9997867        129.7409      0.005069274        -90.2704
1.45                 0.005064878        169.6931        0.9997843         128.141        0.9997843         128.141      0.005064878        -93.4111
1.46                 0.005060465         169.634        0.9997816         126.541        0.9997817         126.541      0.005060464         -96.552
1.47                 0.005056037        169.5751        0.9997789         124.941        0.9997789         124.941      0.005056037       -99.69318
1.48                 0.005051592        169.5164        0.9997763        123.3409        0.9997764        123.3409      0.005051592       -102.8345
1.49                 0.005047132        169.4578        0.9997737        121.7409        0.9997736        121.7409      0.005047132        -105.976
1.5                  0.005042656        169.3994        0.9997711        120.1408        0.9997711        120.1408      0.005042656       -109.1178
1.51                 0.005038164        169.3412        0.9997684        118.5407        0.9997685        118.5407      0.005038164       -112.2597
1.52                 0.005033656        169.2831        0.9997657        116.9406        0.9997658        116.9406      0.005033656       -115.4019
1.53                 0.005029133        169.2252        0.9997629        115.3405        0.9997629        115.3405      0.005029133       -118.5443
1.54                 0.005024594        169.1674        0.9997601        113.7403        0.9997601        113.7403      0.005024594       -121.6868
1.55                  0.00502004        169.1098        0.9997574        112.1401        0.9997574        112.1401       0.00502004       -124.8296
1.56                  0.00501547        169.0524        0.9997547        110.5399        0.9997547        110.5399       0.00501547       -127.9725
1.57                 0.005010885        168.9951        0.9997519        108.9397        0.9997519        108.9397      0.005010885       -131.1156
1.58                 0.005006284        168.9379         0.999749        107.3395        0.9997489        107.3395      0.005006284        -134.259
1.59                 0.005001668        168.8809        0.9997462        105.7392        0.9997461        105.7392      0.005001668       -137.4025
1.6                  0.004997036         168.824        0.9997433        104.1389        0.9997432        104.1389      0.004997037       -140.5462
1.61                  0.00499239        168.7673        0.9997405        102.5386        0.9997406        102.5386       0.00499239       -143.6901
1.62                 0.004987726        168.7107        0.9997376        100.9383        0.9997376        100.9383      0.004987727       -146.8341
1.63                 0.004983049        168.6543        0.9997347        99.33795        0.9997347        99.33795      0.004983048       -149.9783
1.64                 0.004978354        168.5979        0.9997318        97.73759        0.9997317        97.73759      0.004978354       -153.1228
1.65                 0.004973645        168.5418        0.9997287        96.13719        0.9997286        96.13719      0.004973646       -156.2674
1.66                  0.00496892        168.4857        0.9997258        94.53677        0.9997257        94.53677      0.004968919       -159.4122
1.67                  0.00496418        168.4298        0.9997228        92.93634        0.9997227        92.93634       0.00496418       -162.5571
1.68                 0.004959422         168.374        0.9997198        91.33588        0.9997198        91.33589      0.004959423       -165.7023
1.69                  0.00495465        168.3183        0.9997168        89.73539        0.9997168        89.73539       0.00495465       -168.8476
1.7                  0.004949862        168.2628        0.9997138         88.1349        0.9997138         88.1349      0.004949861        -171.993
1.71                 0.004945057        168.2074        0.9997107        86.53438        0.9997106        86.53438      0.004945057       -175.1386
1.72                 0.004940236        168.1521        0.9997076        84.93382        0.9997075        84.93382      0.004940237       -178.2845
1.73                 0.004935399        168.0969        0.9997046        83.33325        0.9997046        83.33326      0.004935399        178.5696
1.74                 0.004930546        168.0419        0.9997015        81.73265        0.9997015        81.73265      0.004930546        175.4234
1.75                 0.004925676         167.987        0.9996983        80.13203        0.9996983        80.13203      0.004925676        172.2771
1.76                  0.00492079        167.9321        0.9996951        78.53139        0.9996951        78.53139       0.00492079        169.1306
1.77                 0.004915886        167.8775         0.999692        76.93073         0.999692        76.93073      0.004915886         165.984
1.78                 0.004910966        167.8229        0.9996888        75.33004        0.9996888        75.33004      0.004910966        162.8372
1.79                 0.004906028        167.7684        0.9996855        73.72933        0.9996854        73.72933      0.004906028        159.6903
1.8                  0.004901073        167.7141        0.9996824        72.12858        0.9996825        72.12858      0.004901073        156.5431
1.81                 0.004896102        167.6598        0.9996791        70.52783        0.9996791        70.52783      0.004896102        153.3959
1.82                 0.004891113        167.6057        0.9996758        68.92705        0.9996758        68.92705      0.004891113        150.2484
1.83                 0.004886106        167.5517        0.9996726        67.32624        0.9996726        67.32625      0.004886106        147.1008
1.84                  0.00488108        167.4978        0.9996693         65.7254        0.9996693         65.7254      0.004881079        143.9531
1.85                 0.004876037         167.444        0.9996659        64.12456        0.9996659        64.12456      0.004876036        140.8052
1.86                 0.004870976        167.3903        0.9996626        62.52367        0.9996626        62.52367      0.004870975        137.6571
1.87                 0.004865896        167.3367        0.9996593        60.92275        0.9996593        60.92275      0.004865896        134.5088
1.88                 0.004860798        167.2832        0.9996558        59.32184        0.9996558        59.32184      0.004860797        131.3604
1.89                  0.00485568        167.2299        0.9996526        57.72087        0.9996525        57.72087       0.00485568        128.2119
1.9                  0.004850545        167.1766        0.9996491        56.11989        0.9996491        56.11989      0.004850544        125.0632
1.91                 0.004845389        167.1235        0.9996456        54.51889        0.9996456        54.51889      0.004845389        121.9143
1.92                 0.004840215        167.0704        0.9996421        52.91785        0.9996421        52.91785      0.004840215        118.7653
1.93                 0.004835021        167.0175        0.9996388         51.3168        0.9996388         51.3168      0.004835021        115.6161
1.94                 0.004829807        166.9647        0.9996353        49.71572        0.9996353        49.71572      0.004829806        112.4668
1.95                 0.004824573         166.912        0.9996318        48.11461        0.9996318        48.11461      0.004824573        109.3172
1.96                 0.004819319        166.8594        0.9996283        46.51347        0.9996282        46.51347      0.004819319        106.1675
1.97                 0.004814045        166.8069        0.9996246        44.91232        0.9996245        44.91232      0.004814045        103.0177
1.98                  0.00480875        166.7545         0.999621        43.31114         0.999621        43.31114       0.00480875        99.86773