! TOUCHSTONE file generated by CST MICROWAVE STUDIO
! Date and time: Tue Feb 18 19:56:00 2025
! Project name: MSLineZL_resistive.cst
! Parameters = {ZL=100; C=0; L=100; Lamb=0.05; Li=0; R=1e-13; W=20; Zp2=50; dlump=2; er=2; h=0.8; w1=2.62}
! Header version: 2024
! Port assignment regex: !\s*Touchstone port\s*([0-9]+)\s*=\s*(CST MWS port|CST DES external port|CST DES block port)\s*(.+)\s* \(\"(.*)\"\)(\s*mode\s*([0-9]+))?.*
! Touchstone port assignment:
! Touchstone port 1 = CST MWS port 1 ("")
# GHz S MA R 50
0                      0.3328075              -0
0.01                   0.3328156       -3.246665
0.02                   0.3328401       -6.493171
0.03                   0.3328807       -9.739361
0.04                   0.3329373       -12.98508
0.05                   0.3330099       -16.23017
0.06                    0.333098       -19.47448
0.07                   0.3332016       -22.71785
0.08                   0.3333202       -25.96015
0.09                   0.3334535       -29.20123
0.1                     0.333601       -32.44094
0.11                   0.3337624       -35.67917
0.12                   0.3339371       -38.91577
0.13                   0.3341244       -42.15062
0.14                    0.334324       -45.38361
0.15                    0.334535       -48.61464
0.16                    0.334757       -51.84358
0.17                   0.3349892       -55.07035
0.18                   0.3352308       -58.29487
0.19                   0.3354812       -61.51704
0.2                    0.3357395       -64.73679
0.21                    0.336005       -67.95405
0.22                   0.3362768       -71.16878
0.23                   0.3365542       -74.38091
0.24                   0.3368363        -77.5904
0.25                   0.3371221       -80.79723
0.26                   0.3374109       -84.00136
0.27                   0.3377018        -87.2028
0.28                   0.3379939       -90.40151
0.29                   0.3382863       -93.59751
0.3                    0.3385781       -96.79081
0.31                   0.3388685       -99.98141
0.32                   0.3391566       -103.1693
0.33                   0.3394416       -106.3546
0.34                   0.3397224       -109.5373
0.35                   0.3399985       -112.7175
0.36                   0.3402689       -115.8951
0.37                   0.3405329       -119.0704
0.38                   0.3407896       -122.2432
0.39                   0.3410384       -125.4138
0.4                    0.3412784       -128.5822
0.41                    0.341509       -131.7484
0.42                   0.3417295       -134.9126
0.43                   0.3419393       -138.0749
0.44                   0.3421378       -141.2353
0.45                   0.3423243        -144.394
0.46                   0.3424984       -147.5511
0.47                   0.3426595       -150.7068
0.48                   0.3428073        -153.861
0.49                   0.3429411        -157.014
0.5                    0.3430608       -160.1658
0.51                   0.3431657       -163.3167
0.52                   0.3432559       -166.4667
0.53                   0.3433309       -169.6159
0.54                   0.3433906       -172.7646
0.55                   0.3434347       -175.9128
0.56                   0.3434632       -179.0607
0.57                    0.343476        177.7917
0.58                   0.3434729         174.644
0.59                   0.3434542        171.4963
0.6                    0.3434197        168.3483
0.61                   0.3433696           165.2
0.62                    0.343304        162.0511
0.63                   0.3432231        158.9016
0.64                   0.3431271        155.7513
0.65                   0.3430164        152.6001
0.66                   0.3428913        149.4479
0.67                   0.3427519        146.2945
0.68                   0.3425989        143.1398
0.69                   0.3424326        139.9837
0.7                    0.3422534        136.8261
0.71                    0.342062        133.6668
0.72                   0.3418589        130.5057
0.73                   0.3416445        127.3428
0.74                   0.3414196         124.178
0.75                   0.3411848         121.011
0.76                   0.3409407         117.842
0.77                   0.3406882        114.6707
0.78                   0.3404278        111.4971
0.79                   0.3401604        108.3211
0.8                    0.3398868        105.1427
0.81                   0.3396076        101.9618
0.82                   0.3393237        98.77829
0.83                   0.3390361        95.59221
0.84                   0.3387454        92.40351
0.85                   0.3384526        89.21213
0.86                   0.3381585        86.01809
0.87                   0.3378639        82.82134
0.88                   0.3375698        79.62187
0.89                   0.3372769        76.41973
0.9                    0.3369863        73.21488
0.91                   0.3366986        70.00739
0.92                   0.3364148        66.79724
0.93                   0.3361357        63.58448
0.94                    0.335862        60.36915
0.95                   0.3355948        57.15131
0.96                   0.3353346        53.93101
0.97                   0.3350823        50.70834
0.98                   0.3348387        47.48335
0.99                   0.3346044        44.25613
1                      0.3343802        41.02677
1.01                   0.3341666        37.79536
1.02                   0.3339644        34.56202
1.03                   0.3337741        31.32685
1.04                   0.3335963        28.08997
1.05                   0.3334314        24.85148
1.06                   0.3332801        21.61153
1.07                   0.3331427        18.37026
1.08                   0.3330196        15.12777
1.09                    0.332911        11.88423
1.1                    0.3328175        8.639781
1.11                   0.3327391         5.39456
1.12                   0.3326762        2.148718
1.13                   0.3326288       -1.097591
1.14                    0.332597       -4.344217
1.15                    0.332581       -7.591006
1.16                   0.3325807        -10.8378
1.17                    0.332596       -14.08446
1.18                    0.332627       -17.33082
1.19                   0.3326734       -20.57673
1.2                    0.3327351       -23.82204
1.21                   0.3328117       -27.06661
1.22                   0.3329031        -30.3103
1.23                   0.3330089       -33.55296
1.24                   0.3331287       -36.79444
1.25                   0.3332621       -40.03464
1.26                   0.3334087       -43.27342
1.27                   0.3335679       -46.51064
1.28                   0.3337392       -49.74622
1.29                    0.333922       -52.98001
1.3                    0.3341157       -56.21193
1.31                   0.3343197       -59.44189
1.32                   0.3345332       -62.66977
1.33                   0.3347557        -65.8955
1.34                   0.3349863       -69.11902
1.35                   0.3352244       -72.34024
1.36                   0.3354691       -75.55911
1.37                   0.3357197       -78.77559
1.38                   0.3359753        -81.9896
1.39                   0.3362352       -85.20113
1.4                    0.3364985       -88.41014
1.41                   0.3367644       -91.61664
1.42                    0.337032       -94.82055
1.43                   0.3373005       -98.02194
1.44                   0.3375691       -101.2208
1.45                   0.3378369       -104.4171
1.46                   0.3381032       -107.6109
1.47                    0.338367       -110.8022
1.48                   0.3386275        -113.991
1.49                    0.338884       -117.1774
1.5                    0.3391358       -120.3614
1.51                   0.3393818       -123.5431
1.52                   0.3396216       -126.7226
1.53                   0.3398543       -129.8999
1.54                   0.3400792       -133.0751
1.55                   0.3402957       -136.2482
1.56                    0.340503       -139.4194
1.57                   0.3407006       -142.5888
1.58                    0.340888       -145.7564
1.59                   0.3410644       -148.9223
1.6                    0.3412294       -152.0866
1.61                   0.3413825       -155.2495
1.62                   0.3415233       -158.4111
1.63                   0.3416513       -161.5715
1.64                   0.3417661       -164.7308
1.65                   0.3418674        -167.889
1.66                    0.341955       -171.0465
1.67                   0.3420284       -174.2032
1.68                   0.3420876       -177.3593
1.69                   0.3421324        179.4851
1.7                    0.3421626        176.3298
1.71                    0.342178        173.1747
1.72                   0.3421788        170.0197
1.73                   0.3421649        166.8647
1.74                   0.3421362        163.7094
1.75                   0.3420929        160.5538
1.76                   0.3420351        157.3978
1.77                    0.341963        154.2412
1.78                   0.3418767        151.0839
1.79                   0.3417765        147.9258
1.8                    0.3416628        144.7667
1.81                   0.3415357        141.6066
1.82                   0.3413957        138.4453
1.83                   0.3412433        135.2826
1.84                   0.3410787        132.1185
1.85                   0.3409025        128.9529
1.86                   0.3407152        125.7857
1.87                   0.3405174        122.6168
1.88                   0.3403096         119.446
1.89                   0.3400923        116.2733
1.9                    0.3398663        113.0986
1.91                   0.3396322        109.9219
1.92                   0.3393906        106.7429
1.93                   0.3391423        103.5618
1.94                   0.3388879        100.3784
1.95                   0.3386283        97.19265
1.96                   0.3383641        94.00452
1.97                   0.3380961        90.81396
1.98                   0.3378251        87.62094
1.99                   0.3375519        84.42544
2                      0.3372773        81.22743
2.01                   0.3370021        78.02689
2.02                    0.336727        74.82383
2.03                    0.336453        71.61826
2.04                   0.3361807        68.41016
2.05                    0.335911        65.19956
2.06                   0.3356446        61.98649
2.07                   0.3353824        58.77097
2.08                   0.3351251        55.55308
2.09                   0.3348733        52.33281
2.1                     0.334628        49.11024
2.11                   0.3343897        45.88544
2.12                   0.3341593        42.65846
2.13                   0.3339372         39.4294
2.14                   0.3337242        36.19832
2.15                   0.3335208        32.96533
2.16                   0.3333278         29.7305
2.17                   0.3331455        26.49394
2.18                   0.3329745        23.25578
2.19                   0.3328153        20.01609
2.2                    0.3326683        16.77502
2.21                    0.332534        13.53268
2.22                   0.3324126        10.28919
2.23                   0.3323045        7.044675
2.24                   0.3322099        3.799278
2.25                   0.3321292       0.5531269
2.26                   0.3320624       -2.693641
2.27                   0.3320098       -5.940888
2.28                   0.3319713       -9.188477
2.29                   0.3319472       -12.43626
2.3                    0.3319372       -15.68411
2.31                   0.3319415       -18.93188
2.32                     0.33196       -22.17943
2.33                   0.3319924       -25.42663
2.34                   0.3320387       -28.67333
2.35                   0.3320987        -31.9194
2.36                    0.332172       -35.16473
2.37                   0.3322583       -38.40915
2.38                   0.3323572       -41.65258
2.39                   0.3324685        -44.8949
2.4                    0.3325917       -48.13596
2.41                   0.3327264       -51.37563
2.42                   0.3328719       -54.61387
2.43                   0.3330279       -57.85059
2.44                   0.3331937       -61.08559
2.45                   0.3333688       -64.31886
2.46                   0.3335525       -67.55036
2.47                   0.3337443       -70.77992
2.48                   0.3339434       -74.00751
2.49                   0.3341492       -77.23308
2.5                    0.3343609       -80.45658
2.51                   0.3345779       -83.67794
2.52                   0.3347995       -86.89712
2.53                   0.3350248       -90.11411
2.54                   0.3352531       -93.32886
2.55                   0.3354837       -96.54137
2.56                    0.335716       -99.75162
2.57                   0.3359489       -102.9596
2.58                   0.3361819       -106.1654
2.59                   0.3364141       -109.3688
2.6                    0.3366448       -112.5701
2.61                   0.3368733       -115.7692
2.62                   0.3370988       -118.9661
2.63                   0.3373206       -122.1609
2.64                    0.337538       -125.3536
2.65                   0.3377504       -128.5443
2.66                   0.3379571       -131.7329
2.67                   0.3381572       -134.9197
2.68                   0.3383505       -138.1046
2.69                    0.338536       -141.2878
2.7                    0.3387134       -144.4692
2.71                    0.338882       -147.6491
2.72                   0.3390413       -150.8274
2.73                   0.3391909       -154.0043
2.74                   0.3393302       -157.1799
2.75                   0.3394589       -160.3543
2.76                   0.3395765       -163.5274
2.77                   0.3396828       -166.6997
2.78                   0.3397772       -169.8709
2.79                   0.3398597       -173.0414
2.8                    0.3399299       -176.2112
2.81                   0.3399876       -179.3804
2.82                   0.3400326        177.4509
2.83                   0.3400649        174.2825
2.84                   0.3400842        171.1143
2.85                   0.3400906        167.9462
2.86                   0.3400839        164.7781
2.87                   0.3400644        161.6099
2.88                   0.3400319        158.4415
2.89                   0.3399865        155.2726
2.9                    0.3399285        152.1033
2.91                    0.339858        148.9334
2.92                   0.3397752        145.7627
2.93                   0.3396803        142.5912
2.94                   0.3395736        139.4188
2.95                   0.3394555        136.2454
2.96                   0.3393262        133.0708
2.97                   0.3391862        129.8949
2.98                   0.3390359        126.7178
2.99                   0.3388756        123.5391
3                       0.338706         120.359
3.01                   0.3385274        117.1773
3.02                   0.3383405        113.9938
3.03                   0.3381457        110.8086
3.04                   0.3379437        107.6216
3.05                    0.337735        104.4326
3.06                   0.3375202        101.2417
3.07                   0.3373001        98.04874
3.08                   0.3370752        94.85371
3.09                   0.3368461        91.65661
3.1                    0.3366136        88.45735
3.11                   0.3363784         85.2559
3.12                   0.3361411        82.05227
3.13                   0.3359026         78.8464
3.14                   0.3356633        75.63829
3.15                   0.3354241        72.42796
3.16                   0.3351856        69.21542
3.17                   0.3349487        66.00065
3.18                   0.3347138        62.78363
3.19                   0.3344818        59.56445
3.2                    0.3342534        56.34311
3.21                   0.3340291        53.11965
3.22                   0.3338096        49.89413
3.23                   0.3335957        46.66657
3.24                   0.3333878        43.43701
3.25                   0.3331866        40.20557
3.26                   0.3329927        36.97227
3.27                   0.3328066        33.73721
3.28                   0.3326289        30.50047
3.29                     0.33246        27.26208
3.3                    0.3323004        24.02219
3.31                   0.3321506        20.78087
3.32                    0.332011        17.53822
3.33                   0.3318819        14.29436
3.34                   0.3317636        11.04936
3.35                   0.3316566        7.803361
3.36                    0.331561        4.556459
3.37                    0.331477        1.308774
3.38                   0.3314049        -1.93958
3.39                   0.3313449       -5.188481
3.4                     0.331297       -8.437812
3.41                   0.3312612       -11.68745
3.42                   0.3312377       -14.93728
3.43                   0.3312263       -18.18717
3.44                   0.3312272         -21.437
3.45                   0.3312401       -24.68666
3.46                    0.331265       -27.93603
3.47                   0.3313016       -31.18498
3.48                   0.3313499       -34.43341
3.49                   0.3314095        -37.6812
3.5                    0.3314801       -40.92825
3.51                   0.3315615       -44.17445
3.52                   0.3316534       -47.41967
3.53                   0.3317552       -50.66386
3.54                   0.3318666       -53.90689
3.55                   0.3319872       -57.14869
3.56                   0.3321166       -60.38917
3.57                   0.3322542       -63.62825
3.58                   0.3323994       -66.86584
3.59                   0.3325519        -70.1019
3.6                    0.3327109       -73.33635
3.61                    0.332876       -76.56915
3.62                   0.3330465       -79.80022
3.63                   0.3332218       -83.02955
3.64                   0.3334013       -86.25708
3.65                   0.3335843       -89.48278
3.66                   0.3337703       -92.70663
3.67                   0.3339586       -95.92862
3.68                   0.3341484       -99.14873
3.69                   0.3343393       -102.3669
3.7                    0.3345304       -105.5833
3.71                   0.3347212       -108.7977
3.72                    0.334911       -112.0103
3.73                   0.3350992       -115.2211
3.74                   0.3352851         -118.43
3.75                   0.3354682       -121.6371
3.76                   0.3356478       -124.8425
3.77                   0.3358232       -128.0462
3.78                    0.335994       -131.2482
3.79                   0.3361596       -134.4486
3.8                    0.3363194       -137.6475
3.81                   0.3364729       -140.8449
3.82                   0.3366196       -144.0408
3.83                   0.3367591       -147.2354
3.84                   0.3368908       -150.4288
3.85                   0.3370144       -153.6209
3.86                   0.3371295        -156.812
3.87                   0.3372356        -160.002
3.88                   0.3373325       -163.1911
3.89                   0.3374198       -166.3793
3.9                    0.3374974       -169.5668
3.91                   0.3375648       -172.7537
3.92                   0.3376219       -175.9399
3.93                   0.3376685       -179.1258
3.94                   0.3377046        177.6887
3.95                   0.3377299        174.5035
3.96                   0.3377443        171.3184
3.97                    0.337748        168.1334
3.98                   0.3377408        164.9483
3.99                   0.3377227         161.763
4                      0.3376938        158.5775
4.01                   0.3376543        155.3916
4.02                   0.3376042        152.2053
4.03                   0.3375436        149.0183
4.04                   0.3374728        145.8308
4.05                    0.337392        142.6424
4.06                   0.3373015        139.4533
4.07                   0.3372015        136.2632
4.08                   0.3370923         133.072
4.09                   0.3369743        129.8797
4.1                    0.3368478        126.6863
4.11                   0.3367133        123.4916
4.12                   0.3365711        120.2955
4.13                   0.3364217         117.098
4.14                   0.3362656         113.899
4.15                   0.3361032        110.6985
4.16                    0.335935        107.4964
4.17                   0.3357616        104.2926
4.18                   0.3355834        101.0871
4.19                   0.3354011        97.87984
4.2                    0.3352152        94.67083
4.21                   0.3350262        91.45998
4.22                   0.3348349        88.24732
4.23                   0.3346416        85.03278
4.24                   0.3344471        81.81636
4.25                   0.3342519        78.59804
4.26                   0.3340566        75.37784
4.27                   0.3338618        72.15574
4.28                   0.3336681        68.93175
4.29                   0.3334762         65.7059
4.3                    0.3332865        62.47818
4.31                   0.3330996        59.24866
4.32                   0.3329162        56.01734
4.33                   0.3327367        52.78425
4.34                   0.3325618        49.54946
4.35                   0.3323918        46.31299
4.36                   0.3322275        43.07491
4.37                    0.332069        39.83528
4.38                   0.3319171        36.59414
4.39                   0.3317721        33.35159
4.4                    0.3316344        30.10767
4.41                   0.3315044        26.86248
4.42                   0.3313825        23.61608
4.43                   0.3312691        20.36857
4.44                   0.3311643        17.12003
4.45                   0.3310686        13.87056
4.46                   0.3309821        10.62023
4.47                   0.3309051        7.369156
4.48                   0.3308377        4.117426
4.49                   0.3307801       0.8651416
4.5                    0.3307324       -2.387598
4.51                   0.3306947       -5.640693
4.52                    0.330667       -8.894041
4.53                   0.3306494       -12.14754
4.54                   0.3306418       -15.40108
4.55                   0.3306441       -18.65458
4.56                   0.3306563       -21.90792
4.57                   0.3306783       -25.16101
4.58                   0.3307099       -28.41375
4.59                   0.3307508       -31.66605
4.6                     0.330801       -34.91781
4.61                   0.3308601       -38.16894
4.62                   0.3309278       -41.41936
4.63                   0.3310039       -44.66898
4.64                    0.331088       -47.91772
4.65                   0.3311798        -51.1655
4.66                   0.3312789       -54.41226
4.67                   0.3313847       -57.65792
4.68                   0.3314971       -60.90243
4.69                   0.3316154        -64.1457
4.7                    0.3317392       -67.38771
4.71                    0.331868       -70.62838
4.72                   0.3320014       -73.86771
4.73                   0.3321388       -77.10563
4.74                   0.3322797        -80.3421
4.75                   0.3324235       -83.57711
4.76                   0.3325698       -86.81065
4.77                   0.3327179       -90.04267
4.78                   0.3328673       -93.27318
4.79                   0.3330175       -96.50217
4.8                     0.333168       -99.72962
4.81                    0.333318       -102.9556
4.82                   0.3334673         -106.18
4.83                    0.333615        -109.403
4.84                   0.3337609       -112.6245
4.85                   0.3339042       -115.8446
4.86                   0.3340445       -119.0632
4.87                   0.3341814       -122.2806
4.88                   0.3343142       -125.4965
4.89                   0.3344426       -128.7112
4.9                     0.334566       -131.9247
4.91                   0.3346842        -135.137
4.92                   0.3347965       -138.3481
4.93                   0.3349027       -141.5583
4.94                   0.3350023       -144.7674
4.95                    0.335095       -147.9756
4.96                   0.3351805        -151.183
4.97                   0.3352585       -154.3896
4.98                   0.3353287       -157.5955
4.99                   0.3353908       -160.8008
5                      0.3354446       -164.0056
5.01                     0.33549       -167.2099
5.02                   0.3355268       -170.4139
5.03                   0.3355548       -173.6175
5.04                   0.3355739        -176.821
5.05                   0.3355841        179.9756
5.06                   0.3355853        176.7722
5.07                   0.3355776        173.5687
5.08                   0.3355608        170.3651
5.09                   0.3355351        167.1612
5.1                    0.3355006        163.9569
5.11                   0.3354572        160.7523
5.12                   0.3354052        157.5471
5.13                   0.3353449        154.3413
5.14                   0.3352762        151.1349
5.15                   0.3351994        147.9276
5.16                   0.3351149        144.7196
5.17                   0.3350228        141.5106
5.18                   0.3349235        138.3006
5.19                   0.3348173        135.0896
5.2                    0.3347044        131.8774
5.21                   0.3345854         128.664
5.22                   0.3344605        125.4494
5.23                   0.3343302        122.2335
5.24                   0.3341949        119.0162
5.25                   0.3340551        115.7976
5.26                    0.333911        112.5774
5.27                   0.3337634        109.3558
5.28                   0.3336126        106.1327
5.29                   0.3334591        102.9079
5.3                    0.3333034        99.68165
5.31                   0.3331461        96.45377
5.32                   0.3329876        93.22428
5.33                   0.3328285        89.99313
5.34                   0.3326692        86.76038
5.35                   0.3325103        83.52601
5.36                   0.3323523           80.29
5.37                   0.3321957        77.05238
5.38                   0.3320411        73.81318
5.39                   0.3318889        70.57238
5.4                    0.3317395        67.33005
5.41                   0.3315936         64.0862
5.42                   0.3314515        60.84087
5.43                   0.3313137        57.59411
5.44                   0.3311807        54.34595
5.45                   0.3310529        51.09646
5.46                   0.3309306        47.84568
5.47                   0.3308143        44.59368
5.48                   0.3307043        41.34052
5.49                    0.330601        38.08625
5.5                    0.3305046        34.83096
5.51                   0.3304155        31.57473
5.52                    0.330334        28.31762
5.53                   0.3302602        25.05971
5.54                   0.3301944         21.8011
5.55                   0.3301368        18.54186
5.56                   0.3300874        15.28208
5.57                   0.3300465        12.02184
5.58                   0.3300141        8.761239
5.59                   0.3299903        5.500363
5.6                    0.3299751        2.239301
5.61                   0.3299685       -1.021856
5.62                   0.3299704       -4.283019
5.63                   0.3299809       -7.544096
5.64                   0.3299998         -10.805
5.65                    0.330027       -14.06565
5.66                   0.3300623       -17.32595
5.67                   0.3301056       -20.58583
5.68                   0.3301566       -23.84519
5.69                   0.3302152       -27.10396
5.7                    0.3302809       -30.36207
5.71                   0.3303536       -33.61943
5.72                    0.330433       -36.87598
5.73                   0.3305186       -40.13167
5.74                   0.3306101       -43.38641
5.75                   0.3307073       -46.64016
5.76                   0.3308095       -49.89286
5.77                   0.3309165       -53.14445
5.78                   0.3310277        -56.3949
5.79                   0.3311428       -59.64417
5.8                    0.3312613        -62.8922
5.81                   0.3313826         -66.139
5.82                   0.3315064        -69.3845
5.83                   0.3316322       -72.62872
5.84                   0.3317593       -75.87161
5.85                   0.3318874       -79.11316
5.86                   0.3320158        -82.3534
5.87                   0.3321442       -85.59233
5.88                    0.332272        -88.8299
5.89                   0.3323986       -92.06618
5.9                    0.3325237       -95.30115
5.91                   0.3326467       -98.53486
5.92                   0.3327671       -101.7673
5.93                   0.3328844       -104.9985
5.94                   0.3329983       -108.2286
5.95                   0.3331081       -111.4575
5.96                   0.3332137       -114.6853
5.97                   0.3333143        -117.912
5.98                   0.3334097       -121.1377
5.99                   0.3334995       -124.3625
6                      0.3335833       -127.5864