! TOUCHSTONE file generated by CST MICROWAVE STUDIO
! Date and time: Wed Feb 19 21:01:27 2025
! Project name: MSLineZp1.cst
! Parameters = {Zp1=100; Zp2=50; C=0; L=100; Lamb=0.05; Li=0; R=1e-13; W=20; dlump=2; er=2; h=0.8; w1=2.62}
! Header version: 2024
! Port assignment regex: !\s*Touchstone port\s*([0-9]+)\s*=\s*(CST MWS port|CST DES external port|CST DES block port)\s*(.+)\s* \(\"(.*)\"\)(\s*mode\s*([0-9]+))?.*
! Touchstone port assignment:
! Touchstone port 1 = CST MWS port 1 ("")
! Touchstone port 2 = CST MWS port 2 ("")
# GHz S MA R 50
0                     0.00542441        179.9996        0.9999775   -6.363086e-07        0.9999775   -6.363086e-07      0.005429593   -0.0005849075
0.01                 0.005424382        179.9225        0.9999774       -1.598552        0.9999774       -1.598552      0.005429627       -3.119408
0.02                 0.005424329        179.8456        0.9999774       -3.197103        0.9999774       -3.197103      0.005429537       -6.239996
0.03                 0.005424219        179.7677        0.9999773       -4.795656        0.9999773       -4.795656      0.005429552       -9.358634
0.04                 0.005424153        179.6898        0.9999773       -6.394209        0.9999773       -6.394209       0.00542945        -12.4791
0.05                 0.005423929        179.6119        0.9999771       -7.992764        0.9999771       -7.992764      0.005429346       -15.59771
0.06                 0.005423747        179.5349         0.999977       -9.591317        0.9999769       -9.591318      0.005429319       -18.71773
0.07                 0.005423509         179.457         0.999977       -11.18987         0.999977       -11.18987      0.005429028         -21.838
0.08                 0.005423213        179.3801        0.9999768       -12.78843        0.9999767       -12.78843      0.005428884       -24.95649
0.09                 0.005422959        179.3031        0.9999766       -14.38698        0.9999766       -14.38699        0.0054287       -28.07779
0.1                  0.005422583        179.2251        0.9999765       -15.98554        0.9999765       -15.98554      0.005428417       -31.19614
0.11                 0.005422181        179.1481        0.9999762        -17.5841        0.9999761        -17.5841      0.005428297       -34.31497
0.12                 0.005421757        179.0701         0.999976       -19.18266        0.9999759       -19.18266      0.005428033       -37.43576
0.13                 0.005421308        178.9931        0.9999757       -20.78122        0.9999757       -20.78123       0.00542775       -40.55654
0.14                 0.005420803         178.915        0.9999754       -22.37979        0.9999754       -22.37979      0.005427354       -43.67587
0.15                 0.005420272        178.8379        0.9999752       -23.97836        0.9999752       -23.97836      0.005426964       -46.79647
0.16                 0.005419717        178.7608        0.9999748       -25.57693        0.9999747       -25.57693      0.005426742       -49.91611
0.17                 0.005419106        178.6837        0.9999745       -27.17549        0.9999745        -27.1755      0.005426358       -53.03677
0.18                  0.00541847        178.6065        0.9999742       -28.77407        0.9999742       -28.77407      0.005425919       -56.15637
0.19                 0.005417779        178.5283        0.9999739       -30.37265        0.9999739       -30.37265      0.005425434       -59.27494
0.2                  0.005417059        178.4521        0.9999734       -31.97122        0.9999734       -31.97123      0.005425025       -62.39696
0.21                 0.005416318        178.3748         0.999973        -33.5698         0.999973        -33.5698      0.005424573       -65.51567
0.22                 0.005415523        178.2965        0.9999727       -35.16839        0.9999727       -35.16839      0.005423983       -68.63377
0.23                 0.005414664        178.2201        0.9999721       -36.76698        0.9999721       -36.76698      0.005423429        -71.7571
0.24                 0.005413849        178.1437        0.9999718       -38.36556        0.9999718       -38.36556      0.005422833       -74.87875
0.25                 0.005412915        178.0653        0.9999713       -39.96416        0.9999713       -39.96416      0.005422265       -77.99476
0.26                 0.005411984        177.9888        0.9999707       -41.56276        0.9999706       -41.56276       0.00542174       -81.11729
0.27                 0.005410996        177.9123        0.9999702       -43.16135        0.9999702       -43.16136      0.005421097       -84.23711
0.28                 0.005409988        177.8347        0.9999697       -44.75996        0.9999696       -44.75996      0.005420445       -87.35914
0.29                 0.005408952        177.7581        0.9999691       -46.35857        0.9999691       -46.35857      0.005419781       -90.48056
0.3                  0.005407859        177.6814        0.9999686       -47.95718        0.9999686       -47.95718      0.005419017       -93.59868
0.31                 0.005406711        177.6037        0.9999679       -49.55579        0.9999679       -49.55579      0.005418312       -96.71908
0.32                 0.005405532        177.5279        0.9999673       -51.15441        0.9999673       -51.15441      0.005417481       -99.84271
0.33                 0.005404367        177.4511        0.9999668       -52.75304        0.9999668       -52.75304      0.005416721       -102.9619
0.34                 0.005403107        177.3751         0.999966       -54.35167         0.999966       -54.35167      0.005415958       -106.0839
0.35                 0.005401864        177.2972        0.9999653        -55.9503        0.9999653        -55.9503      0.005415208       -109.2017
0.36                 0.005400555        177.2212        0.9999647       -57.54893        0.9999647       -57.54893      0.005414304       -112.3236
0.37                 0.005399222        177.1451         0.999964       -59.14758         0.999964       -59.14758      0.005413453       -115.4471
0.38                 0.005397832        177.0689        0.9999633       -60.74623        0.9999632       -60.74622      0.005412533       -118.5671
0.39                 0.005396417        176.9927        0.9999624       -62.34488        0.9999624       -62.34489       0.00541168       -121.6884
0.4                   0.00539495        176.9154        0.9999617       -63.94355        0.9999617       -63.94355      0.005410713       -124.8098
0.41                  0.00539342         176.839        0.9999608       -65.54222        0.9999608       -65.54222      0.005409799       -127.9297
0.42                 0.005391962        176.7636          0.99996       -67.14087          0.99996       -67.14087       0.00540881       -131.0548
0.43                 0.005390384        176.6871        0.9999592       -68.73956        0.9999592       -68.73956      0.005407811       -134.1763
0.44                 0.005388776        176.6115        0.9999583       -70.33823        0.9999582       -70.33823      0.005406798       -137.2997
0.45                 0.005387111        176.5358        0.9999575       -71.93693        0.9999575       -71.93693      0.005405704       -140.4193
0.46                 0.005385422          176.46        0.9999566       -73.53562        0.9999566       -73.53562      0.005404566       -143.5442
0.47                 0.005383742        176.3842        0.9999556       -75.13433        0.9999556       -75.13433      0.005403535       -146.6657
0.48                 0.005382004        176.3083        0.9999547       -76.73303        0.9999547       -76.73303      0.005402422       -149.7889
0.49                 0.005380202        176.2333        0.9999538       -78.33174        0.9999539       -78.33174      0.005401192       -152.9102
0.5                  0.005378382        176.1572        0.9999527       -79.93045        0.9999527       -79.93045      0.005400146       -156.0317
0.51                 0.005376499         176.082        0.9999517       -81.52919        0.9999516       -81.52919      0.005398961       -159.1532
0.52                 0.005374624        176.0068        0.9999507       -83.12792        0.9999506       -83.12792      0.005397761       -162.2815
0.53                 0.005372692        175.9314        0.9999497       -84.72666        0.9999496       -84.72666      0.005396551       -165.4028
0.54                 0.005370735         175.856        0.9999486        -86.3254        0.9999486        -86.3254      0.005395264       -168.5274
0.55                 0.005368714        175.7814        0.9999475       -87.92416        0.9999475       -87.92416      0.005393956       -171.6486
0.56                 0.005366675        175.7058        0.9999463       -89.52293        0.9999462       -89.52293      0.005392731       -174.7733
0.57                 0.005364638        175.6311        0.9999453        -91.1217        0.9999453        -91.1217      0.005391334       -177.8962
0.58                  0.00536251        175.5563        0.9999442       -92.72048        0.9999441       -92.72048      0.005390025        178.9809
0.59                 0.005360392        175.4814         0.999943       -94.31926        0.9999428       -94.31926       0.00538875        175.8581
0.6                  0.005358167        175.4083        0.9999419       -95.91806        0.9999419       -95.91806      0.005387187        172.7317
0.61                 0.005355999        175.3332        0.9999406       -97.51686        0.9999405       -97.51686      0.005385881        169.6055
0.62                 0.005353732         175.259        0.9999395       -99.11567        0.9999395       -99.11567      0.005384404        166.4828
0.63                  0.00535144        175.1846        0.9999382       -100.7145        0.9999382       -100.7145      0.005382985        163.3601
0.64                  0.00534915        175.1112        0.9999371       -102.3133        0.9999371       -102.3133      0.005381433        160.2339
0.65                 0.005346809        175.0367        0.9999357       -103.9122        0.9999357       -103.9122      0.005379983        157.1079
0.66                 0.005344369         174.963        0.9999345        -105.511        0.9999344        -105.511      0.005378426        153.9852
0.67                 0.005341963        174.8902        0.9999331       -107.1098        0.9999331       -107.1098      0.005376882        150.8573
0.68                 0.005339507        174.8163        0.9999319       -108.7087        0.9999319       -108.7087       0.00537525        147.7328
0.69                 0.005336985        174.7433        0.9999305       -110.3076        0.9999305       -110.3076      0.005373642        144.6071
0.7                  0.005334479        174.6692        0.9999291       -111.9065        0.9999291       -111.9065       0.00537213        141.4829
0.71                 0.005331907         174.596        0.9999277       -113.5054        0.9999277       -113.5054      0.005370429        138.3553
0.72                 0.005329301        174.5236        0.9999264       -115.1043        0.9999265       -115.1043      0.005368688         135.229
0.73                  0.00532667        174.4512         0.999925       -116.7032        0.9999251       -116.7032      0.005366948        132.0999
0.74                 0.005324015        174.3786        0.9999235       -118.3021        0.9999235       -118.3021      0.005365348        128.9738
0.75                 0.005321334        174.3059        0.9999221        -119.901        0.9999221        -119.901      0.005363632        125.8476
0.76                 0.005318628        174.2331        0.9999206          -121.5        0.9999206          -121.5       0.00536187        122.7218
0.77                 0.005315855        174.1612         0.999919       -123.0989         0.999919       -123.0989      0.005360157        119.5929
0.78                 0.005313081        174.0901        0.9999175       -124.6979        0.9999175       -124.6979      0.005358416        116.4664
0.79                 0.005310233        174.0169        0.9999159       -126.2969        0.9999159       -126.2969      0.005356595        113.3375
0.8                  0.005307375        173.9456        0.9999145       -127.8958        0.9999146       -127.8958      0.005354643        110.2112
0.81                 0.005304459        173.8742        0.9999128       -129.4948        0.9999127       -129.4948       0.00535292        107.0828
0.82                 0.005301507        173.8036        0.9999113       -131.0938        0.9999113       -131.0938       0.00535086        103.9498
0.83                 0.005298583        173.7309        0.9999096       -132.6929        0.9999095       -132.6928      0.005349179        100.8281
0.84                 0.005295614        173.6601         0.999908       -134.2919        0.9999081       -134.2919      0.005347137        97.69471
0.85                  0.00529262        173.5892        0.9999064       -135.8909        0.9999064       -135.8909      0.005345241        94.56521
0.86                 0.005289556        173.5191        0.9999047         -137.49        0.9999047         -137.49      0.005343329        91.43638
0.87                 0.005286467        173.4489         0.999903        -139.089        0.9999029        -139.089      0.005341335        88.30435
0.88                 0.005283353        173.3786        0.9999012       -140.6881        0.9999013       -140.6881      0.005339382        85.17641
0.89                 0.005280246        173.3081        0.9998995       -142.2872        0.9998995       -142.2872      0.005337472        82.04623
0.9                  0.005277037        173.2385        0.9998979       -143.8863         0.999898       -143.8863      0.005335255        78.91583
0.91                 0.005273846        173.1678         0.999896       -145.4854        0.9998961       -145.4854      0.005333284        75.78568
0.92                 0.005270641         173.099        0.9998943       -147.0845        0.9998944       -147.0845      0.005331246        72.65412
0.93                 0.005267355        173.0289        0.9998925       -148.6836        0.9998925       -148.6836      0.005329155         69.5233
0.94                 0.005264088        172.9608        0.9998908       -150.2828        0.9998909       -150.2828      0.005326987        66.38964
0.95                 0.005260772        172.8916        0.9998891        -151.882        0.9998891        -151.882      0.005324883        63.26111
0.96                 0.005257431        172.8222        0.9998872       -153.4811        0.9998873       -153.4811      0.005322699        60.12801
0.97                 0.005254053        172.7537        0.9998852       -155.0803        0.9998852       -155.0803      0.005320671        56.99679
0.98                 0.005250682        172.6851        0.9998835       -156.6795        0.9998835       -156.6795      0.005318415        53.86376
0.99                  0.00524724        172.6172        0.9998815       -158.2787        0.9998815       -158.2787      0.005316334        50.73043
1                    0.005243784        172.5483        0.9998795        -159.878        0.9998795        -159.878      0.005314192        47.59609
1.01                 0.005240312        172.4813        0.9998776       -161.4772        0.9998776       -161.4772      0.005311978        44.46353
1.02                 0.005236792         172.413        0.9998757       -163.0765        0.9998758       -163.0765      0.005309665        41.32903
1.03                 0.005233268        172.3457        0.9998737       -164.6757        0.9998737       -164.6757      0.005307545        38.19903
1.04                 0.005229718        172.2783        0.9998718        -166.275        0.9998718        -166.275      0.005305241        35.06319
1.05                 0.005226129        172.2116        0.9998698       -167.8743        0.9998697       -167.8743      0.005303008        31.92734
1.06                 0.005222559         172.144        0.9998677       -169.4736        0.9998677       -169.4736       0.00530077          28.795
1.07                 0.005218905        172.0781        0.9998658       -171.0729        0.9998657       -171.0729      0.005298401        25.65574
1.08                 0.005215225         172.012        0.9998637       -172.6723        0.9998637       -172.6723      0.005296031        22.52189
1.09                 0.005211564        171.9449        0.9998616       -174.2716        0.9998616       -174.2716       0.00529382         19.3861
1.1                  0.005207831        171.8786        0.9998595        -175.871        0.9998594        -175.871      0.005291545        16.25196
1.11                 0.005204125        171.8132        0.9998574       -177.4704        0.9998574       -177.4704      0.005289134        13.11464
1.12                  0.00520036        171.7476        0.9998554       -179.0698        0.9998553       -179.0698      0.005286747        9.977259
1.13                 0.005196588        171.6829        0.9998533        179.3308        0.9998533        179.3308       0.00528429        6.839972
1.14                 0.005192783        171.6161        0.9998511        177.7314        0.9998511        177.7314      0.005281925        3.704511
1.15                 0.005188924         171.551        0.9998489         176.132        0.9998489         176.132      0.005279549       0.5670551
1.16                 0.005185093         171.487        0.9998468        174.5325        0.9998468        174.5325      0.005277102       -2.571178
1.17                 0.005181248        171.4218        0.9998447         172.933        0.9998447         172.933      0.005274642       -5.708416
1.18                 0.005177362        171.3574        0.9998424        171.3335        0.9998422        171.3335       0.00527231       -8.846895
1.19                 0.005173437        171.2939        0.9998403         169.734        0.9998403         169.734      0.005269722       -11.98576
1.2                  0.005169517        171.2302        0.9998381        168.1345        0.9998381        168.1345      0.005267224       -15.12488
1.21                 0.005165538        171.1664        0.9998358         166.535        0.9998359         166.535        0.0052647       -18.26413
1.22                 0.005161531        171.1024        0.9998334        164.9354        0.9998333        164.9354      0.005262348        -21.4033
1.23                 0.005157598        171.0385        0.9998313        163.3358        0.9998314        163.3358      0.005259737       -24.54199
1.24                 0.005153557        170.9752        0.9998289        161.7363        0.9998289        161.7363      0.005257271       -27.68198
1.25                 0.005149508        170.9129        0.9998266        160.1367        0.9998266        160.1367      0.005254779       -30.82276
1.26                 0.005145465        170.8505        0.9998244         158.537        0.9998244         158.537      0.005252151       -33.96345
1.27                 0.005141409        170.7869         0.999822        156.9374         0.999822        156.9374      0.005249653       -37.10362
1.28                 0.005137298        170.7252        0.9998196        155.3377        0.9998197        155.3377      0.005247113        -40.2452
1.29                 0.005133174        170.6623        0.9998172        153.7381        0.9998171        153.7381       0.00524464       -43.38573
1.3                  0.005129041        170.6003         0.999815        152.1384        0.9998149        152.1384      0.005241916       -46.52806
1.31                 0.005124866        170.5391        0.9998124        150.5387        0.9998124        150.5387      0.005239421       -49.67049
1.32                 0.005120745        170.4769        0.9998102        148.9389        0.9998103        148.9389       0.00523673       -52.81175
1.33                 0.005116515        170.4155        0.9998076        147.3392        0.9998076        147.3392      0.005234191       -55.95421
1.34                 0.005112309         170.355        0.9998053        145.7394        0.9998053        145.7394      0.005231501       -59.09772
1.35                 0.005108058        170.2932        0.9998028        144.1397        0.9998028        144.1397      0.005228882       -62.24073
1.36                 0.005103864        170.2325        0.9998002        142.5398        0.9998001        142.5398      0.005226448       -65.38333
1.37                  0.00509956        170.1726        0.9997979          140.94        0.9997979          140.94      0.005223617       -68.52784
1.38                 0.005095311        170.1115        0.9997952        139.3402        0.9997952        139.3402      0.005221086       -71.67084
1.39                 0.005091019        170.0513        0.9997928        137.7404        0.9997929        137.7404      0.005218357       -74.81555
1.4                  0.005086732        169.9911        0.9997903        136.1405        0.9997904        136.1405      0.005215677       -77.95894
1.41                 0.005082336        169.9315        0.9997878        134.5406        0.9997879        134.5406      0.005212958       -81.10491
1.42                 0.005077995        169.8709        0.9997852        132.9407        0.9997853        132.9407      0.005210266       -84.24942
1.43                 0.005073642        169.8112        0.9997825        131.3407        0.9997826        131.3407        0.0052077       -87.39434
1.44                  0.00506928        169.7524        0.9997801        129.7408        0.9997801        129.7408      0.005204926       -90.54006
1.45                 0.005064889        169.6934        0.9997773        128.1408        0.9997773        128.1408      0.005202389       -93.68659
1.46                 0.005060471        169.6343        0.9997748        126.5409        0.9997749        126.5409      0.005199535        -96.8321
1.47                 0.005056058        169.5751        0.9997721        124.9408        0.9997722        124.9408      0.005196851       -99.97821
1.48                 0.005051601        169.5167        0.9997694        123.3408        0.9997694        123.3408      0.005194237       -103.1255
1.49                 0.005047166        169.4572        0.9997667        121.7408        0.9997666        121.7408      0.005191559       -106.2713
1.5                   0.00504267        169.3995        0.9997641        120.1407        0.9997641        120.1407      0.005188752       -109.4191
1.51                 0.005038195        169.3408        0.9997614        118.5406        0.9997613        118.5406      0.005186091       -112.5668
1.52                 0.005033659        169.2839        0.9997587        116.9405        0.9997587        116.9405      0.005183244       -115.7144
1.53                 0.005029112        169.2258        0.9997559        115.3404        0.9997558        115.3404      0.005180513        -118.863
1.54                 0.005024604        169.1677        0.9997532        113.7402        0.9997533        113.7403      0.005177685       -122.0108
1.55                 0.005020067        169.1094        0.9997505        112.1401        0.9997505        112.1401      0.005174998       -125.1579
1.56                 0.005015468        169.0529        0.9997477        110.5399        0.9997477        110.5399      0.005172211       -128.3092
1.57                 0.005010891        168.9954        0.9997449        108.9397         0.999745        108.9397      0.005169418       -131.4578
1.58                 0.005006319        168.9377        0.9997422        107.3394        0.9997422        107.3394      0.005166639       -134.6063
1.59                 0.005001702        168.8809        0.9997393        105.7392        0.9997393        105.7392      0.005163902        -137.756
1.6                  0.004997057        168.8239        0.9997365        104.1389        0.9997365        104.1389      0.005161078       -140.9049
1.61                 0.004992416        168.7668        0.9997336        102.5386        0.9997336        102.5386      0.005158283       -144.0554
1.62                 0.004987763        168.7106        0.9997307        100.9383        0.9997306        100.9383      0.005155558       -147.2054
1.63                 0.004983049        168.6542        0.9997279        99.33795        0.9997279        99.33795      0.005152609       -150.3555
1.64                 0.004978372        168.5978         0.999725        97.73759        0.9997249        97.73759      0.005149849       -153.5062
1.65                 0.004973701        168.5412        0.9997221         96.1372         0.999722         96.1372      0.005147076       -156.6569
1.66                  0.00496895        168.4854        0.9997192        94.53679        0.9997192        94.53679      0.005144166       -159.8082
1.67                 0.004964185        168.4305        0.9997162        92.93636        0.9997161        92.93636      0.005141353       -162.9608
1.68                 0.004959429        168.3734        0.9997132        91.33591        0.9997132        91.33591      0.005138495       -166.1112
1.69                 0.004954674        168.3183        0.9997103        89.73544        0.9997103        89.73544      0.005135585       -169.2635
1.7                  0.004949857         168.263        0.9997073        88.13495        0.9997072        88.13495      0.005132739        -172.416
1.71                 0.004945064        168.2065        0.9997043        86.53442        0.9997043        86.53442       0.00512989       -175.5682
1.72                 0.004940238         168.152        0.9997013        84.93388        0.9997013        84.93388      0.005126976       -178.7216
1.73                 0.004935417        168.0974        0.9996982        83.33331        0.9996982         83.3333      0.005124162        178.1257
1.74                 0.004930567        168.0426        0.9996952        81.73273        0.9996952        81.73273      0.005121247        174.9715
1.75                 0.004925708        167.9865        0.9996922        80.13212        0.9996922        80.13212      0.005118346        171.8193
1.76                 0.004920802        167.9313        0.9996891        78.53147        0.9996891        78.53147      0.005115451         168.667
1.77                 0.004915881        167.8771        0.9996859        76.93082        0.9996858        76.93082      0.005112626        165.5125
1.78                 0.004910964        167.8227        0.9996829        75.33014        0.9996829        75.33014      0.005109596        162.3585
1.79                 0.004906019        167.7682        0.9996797        73.72943        0.9996796        73.72943      0.005106779        159.2043
1.8                  0.004901079        167.7135        0.9996765        72.12869        0.9996765        72.12869      0.005103814        156.0498
1.81                 0.004896123        167.6597        0.9996734        70.52795        0.9996734        70.52795      0.005100843        152.8945
1.82                 0.004891139        167.6058        0.9996703        68.92717        0.9996703        68.92717      0.005097836        149.7394
1.83                 0.004886127        167.5517         0.999667        67.32637        0.9996669        67.32637      0.005094973        146.5838
1.84                 0.004881086        167.4974        0.9996638        65.72554        0.9996638        65.72554      0.005092018        143.4288
1.85                 0.004876029         167.444        0.9996605        64.12468        0.9996604        64.12468       0.00508905        140.2718
1.86                 0.004870997        167.3895        0.9996573         62.5238        0.9996573         62.5238      0.005086064        137.1187
1.87                 0.004865916        167.3358         0.999654         60.9229         0.999654         60.9229      0.005083098        133.9617
1.88                  0.00486082         167.283        0.9996508        59.32198        0.9996508        59.32198      0.005080087        130.8045
1.89                 0.004855662          167.23        0.9996473        57.72103        0.9996472        57.72103      0.005077183        127.6473
1.9                  0.004850541        167.1769        0.9996441        56.12006        0.9996441        56.12006      0.005074095        124.4902
1.91                 0.004845412        167.1226        0.9996407        54.51905        0.9996406        54.51905      0.005071194        121.3331
1.92                 0.004840214        167.0702        0.9996374        52.91802        0.9996374        52.91802      0.005068065        118.1755
1.93                 0.004835019        167.0177        0.9996341        51.31696         0.999634        51.31696      0.005065084        115.0188
1.94                 0.004829817        166.9639        0.9996307        49.71589        0.9996306        49.71589      0.005061999        111.8602
1.95                 0.004824598        166.9111        0.9996273        48.11478        0.9996273        48.11478      0.005058943        108.7011
1.96                  0.00481933        166.8591        0.9996238        46.51366        0.9996238        46.51366      0.005055883        105.5438
1.97                 0.004814033        166.8069        0.9996205        44.91249        0.9996205        44.91249      0.005052715        102.3833