! TOUCHSTONE file generated by CST MICROWAVE STUDIO
! Date and time: Thu Feb 20 01:01:02 2025
! Project name: MSLineZp1.cst
! Parameters = {Zp1=30; Zp2=50; C=0; L=100; Lamb=0.05; Li=0; R=1e-13; W=20; dlump=2; er=2; h=0.8; w1=2.62}
! Header version: 2024
! Port assignment regex: !\s*Touchstone port\s*([0-9]+)\s*=\s*(CST MWS port|CST DES external port|CST DES block port)\s*(.+)\s* \(\"(.*)\"\)(\s*mode\s*([0-9]+))?.*
! Touchstone port assignment:
! Touchstone port 1 = CST MWS port 1 ("")
! Touchstone port 2 = CST MWS port 2 ("")
# GHz S MA R 50
0                    0.005424445             180        0.9999634               0        0.9999634               0      0.005413489    0.0002266065
0.01                 0.005424418        179.9225        0.9999633       -1.598538        0.9999633       -1.598538      0.005413421       -3.119549
0.02                  0.00542437         179.845        0.9999633       -3.197076        0.9999632       -3.197076      0.005413354       -6.239339
0.03                 0.005424268        179.7675        0.9999632       -4.795615        0.9999631       -4.795615      0.005413181       -9.358607
0.04                 0.005424144          179.69        0.9999632       -6.394153        0.9999632       -6.394153      0.005413111       -12.47712
0.05                 0.005423983        179.6125         0.999963       -7.992692        0.9999629       -7.992693       0.00541279       -15.59719
0.06                 0.005423784         179.535        0.9999631       -9.591231         0.999963       -9.591231       0.00541262       -18.71637
0.07                 0.005423563        179.4576        0.9999629       -11.18977        0.9999628       -11.18977       0.00541236       -21.83629
0.08                 0.005423273        179.3801        0.9999629       -12.78831        0.9999629       -12.78831       0.00541205       -24.95522
0.09                 0.005422977        179.3026        0.9999627       -14.38686        0.9999626       -14.38686      0.005411615       -28.07491
0.1                  0.005422612        179.2252        0.9999626        -15.9854        0.9999626        -15.9854      0.005411237       -31.19449
0.11                 0.005422225        179.1478        0.9999624       -17.58395        0.9999623       -17.58395       0.00541072       -34.31419
0.12                   0.0054218        179.0704        0.9999623       -19.18249        0.9999623       -19.18249      0.005410287       -37.43316
0.13                 0.005421337         178.993         0.999962       -20.78104        0.9999619       -20.78105      0.005409673       -40.55347
0.14                 0.005420853        178.9156        0.9999618       -22.37959        0.9999617        -22.3796      0.005409076        -43.6721
0.15                 0.005420315        178.8383        0.9999616       -23.97815        0.9999616       -23.97815       0.00540845       -46.79216
0.16                  0.00541974        178.7609        0.9999613        -25.5767        0.9999613        -25.5767      0.005407724        -49.9117
0.17                 0.005419142        178.6836        0.9999611       -27.17526        0.9999611       -27.17526      0.005407071       -53.03107
0.18                 0.005418491        178.6063        0.9999608       -28.77382        0.9999608       -28.77382      0.005406263       -56.15037
0.19                 0.005417786        178.5291        0.9999605       -30.37238        0.9999605       -30.37239      0.005405365       -59.27062
0.2                  0.005417091        178.4519        0.9999602       -31.97094        0.9999602       -31.97094       0.00540451       -62.38989
0.21                 0.005416342        178.3747        0.9999599       -33.56951        0.9999599        -33.5695      0.005403632       -65.50976
0.22                  0.00541554        178.2975        0.9999595       -35.16808        0.9999595       -35.16808      0.005402655       -68.62921
0.23                 0.005414715        178.2204        0.9999592       -36.76666        0.9999591       -36.76666      0.005401629       -71.74908
0.24                 0.005413837        178.1433        0.9999589       -38.36523        0.9999589       -38.36523      0.005400607       -74.86866
0.25                 0.005412953        178.0662        0.9999585       -39.96381        0.9999585       -39.96382      0.005399509       -77.98987
0.26                  0.00541203        177.9892         0.999958        -41.5624        0.9999579       -41.56239      0.005398346       -81.10847
0.27                 0.005411038        177.9122        0.9999576       -43.16098        0.9999576       -43.16099      0.005397154       -84.22909
0.28                 0.005410023        177.8353        0.9999572       -44.75957        0.9999572       -44.75957       0.00539597       -87.34822
0.29                 0.005408971        177.7584        0.9999568       -46.35816        0.9999568       -46.35816      0.005394694       -90.46791
0.3                   0.00540788        177.6815        0.9999564       -47.95676        0.9999564       -47.95676      0.005393379         -93.588
0.31                 0.005406752        177.6047        0.9999559       -49.55536         0.999956       -49.55536      0.005392027       -96.70816
0.32                 0.005405585         177.528        0.9999554       -51.15398        0.9999553       -51.15397      0.005390548       -99.82917
0.33                 0.005404411        177.4513        0.9999548       -52.75258        0.9999548       -52.75258      0.005389083       -102.9488
0.34                 0.005403168        177.3746        0.9999543       -54.35121        0.9999542       -54.35121      0.005387573       -106.0687
0.35                 0.005401902        177.2981        0.9999538       -55.94982        0.9999538       -55.94982      0.005386079       -109.1897
0.36                 0.005400598        177.2215        0.9999532       -57.54845        0.9999532       -57.54845      0.005384478       -112.3097
0.37                 0.005399255        177.1451        0.9999526       -59.14709        0.9999526       -59.14709      0.005382829       -115.4305
0.38                 0.005397842        177.0686        0.9999521       -60.74572        0.9999521       -60.74572      0.005381159       -118.5502
0.39                 0.005396454        176.9923        0.9999514       -62.34437        0.9999514       -62.34437      0.005379399       -121.6709
0.4                  0.005394996         176.916        0.9999508       -63.94301        0.9999507       -63.94301       0.00537763       -124.7929
0.41                 0.005393515        176.8398        0.9999502       -65.54167        0.9999502       -65.54167      0.005375844       -127.9124
0.42                  0.00539198        176.7637        0.9999495       -67.14033        0.9999495       -67.14034      0.005373968       -131.0342
0.43                 0.005390406        176.6876        0.9999489       -68.73899        0.9999489       -68.73899      0.005372087       -134.1548
0.44                 0.005388809        176.6116        0.9999482       -70.33766        0.9999481       -70.33766      0.005370132       -137.2752
0.45                 0.005387157        176.5357        0.9999475       -71.93633        0.9999475       -71.93633      0.005368171        -140.396
0.46                 0.005385498        176.4598        0.9999468       -73.53501        0.9999467       -73.53501      0.005366112       -143.5173
0.47                 0.005383784        176.3841         0.999946       -75.13371         0.999946       -75.13371       0.00536403       -146.6389
0.48                 0.005382032        176.3084        0.9999453        -76.7324        0.9999452        -76.7324      0.005361891       -149.7602
0.49                 0.005380256        176.2328        0.9999446       -78.33112        0.9999446       -78.33112      0.005359799       -152.8804
0.5                  0.005378425        176.1573        0.9999438       -79.92983        0.9999437       -79.92983      0.005357532       -156.0016
0.51                 0.005376571        176.0819        0.9999429       -81.52854        0.9999429       -81.52854      0.005355262       -159.1239
0.52                 0.005374677        176.0066        0.9999422       -83.12726        0.9999422       -83.12726      0.005352997       -162.2452
0.53                 0.005372744        175.9314        0.9999414       -84.72599        0.9999414       -84.72599      0.005350686       -165.3661
0.54                 0.005370788        175.8563        0.9999404       -86.32473        0.9999404       -86.32473      0.005348259       -168.4883
0.55                 0.005368792        175.7813        0.9999396       -87.92347        0.9999395       -87.92347      0.005345807       -171.6103
0.56                 0.005366756        175.7063        0.9999387       -89.52223        0.9999386       -89.52223        0.0053433       -174.7323
0.57                 0.005364681        175.6315        0.9999378         -91.121        0.9999377         -91.121      0.005340792       -177.8542
0.58                 0.005362582        175.5568        0.9999369       -92.71977        0.9999369       -92.71977       0.00533826        179.0239
0.59                 0.005360443        175.4823        0.9999361       -94.31854         0.999936       -94.31854      0.005335685         175.901
0.6                  0.005358248        175.4078        0.9999351       -95.91733         0.999935       -95.91733      0.005332981        172.7792
0.61                  0.00535603        175.3334        0.9999342       -97.51613        0.9999342       -97.51613      0.005330365        169.6578
0.62                 0.005353771        175.2591        0.9999332       -99.11493        0.9999332       -99.11493      0.005327566        166.5338
0.63                 0.005351472         175.185        0.9999322       -100.7137        0.9999322       -100.7137      0.005324782        163.4111
0.64                 0.005349165         175.111        0.9999312       -102.3126        0.9999312       -102.3126      0.005321976        160.2888
0.65                 0.005346817        175.0371        0.9999302       -103.9114        0.9999302       -103.9114      0.005319064        157.1661
0.66                 0.005344429        174.9634        0.9999291       -105.5102        0.9999291       -105.5102      0.005316215        154.0428
0.67                 0.005341984        174.8898         0.999928       -107.1091         0.999928       -107.1091      0.005313177         150.919
0.68                 0.005339531        174.8163         0.999927       -108.7079         0.999927       -108.7079       0.00531022        147.7956
0.69                 0.005337069         174.743        0.9999259       -110.3068        0.9999259       -110.3068       0.00530719        144.6724
0.7                  0.005334518        174.6697        0.9999249       -111.9057        0.9999249       -111.9057      0.005304179        141.5496
0.71                 0.005331958        174.5966        0.9999237       -113.5046        0.9999237       -113.5046      0.005300953        138.4261
0.72                 0.005329358        174.5237        0.9999225       -115.1035        0.9999225       -115.1035      0.005297791        135.3016
0.73                 0.005326748        174.4509        0.9999215       -116.7024        0.9999215       -116.7024      0.005294646        132.1776
0.74                 0.005324081        174.3783        0.9999202       -118.3013        0.9999201       -118.3013      0.005291385        129.0528
0.75                 0.005321388        174.3058         0.999919       -119.9002         0.999919       -119.9002       0.00528805        125.9295
0.76                 0.005318639        174.2335        0.9999179       -121.4992         0.999918       -121.4992      0.005284764        122.8035
0.77                 0.005315879        174.1613        0.9999167       -123.0981        0.9999167       -123.0981      0.005281414          119.68
0.78                 0.005313094        174.0893        0.9999155       -124.6971        0.9999156       -124.6971      0.005278097         116.556
0.79                 0.005310268        174.0174        0.9999142        -126.296        0.9999142        -126.296      0.005274541        113.4303
0.8                  0.005307431        173.9457        0.9999129        -127.895         0.999913        -127.895      0.005271134        110.3068
0.81                 0.005304521        173.8742        0.9999115        -129.494        0.9999114        -129.494      0.005267421        107.1807
0.82                   0.0053016        173.8028        0.9999102        -131.093        0.9999103        -131.093      0.005263918        104.0554
0.83                 0.005298654        173.7316        0.9999088        -132.692        0.9999088        -132.692       0.00526024        100.9294
0.84                 0.005295665        173.6605        0.9999076       -134.2911        0.9999076       -134.2911       0.00525668        97.80425
0.85                 0.005292634        173.5897        0.9999061       -135.8901        0.9999062       -135.8901      0.005252944        94.67913
0.86                 0.005289592         173.519        0.9999047       -137.4891        0.9999047       -137.4891      0.005249174        91.55362
0.87                 0.005286524        173.4485        0.9999035       -139.0882        0.9999036       -139.0882       0.00524551        88.42652
0.88                 0.005283413        173.3781        0.9999019       -140.6873        0.9999018       -140.6873      0.005241554        85.29872
0.89                 0.005280275         173.308        0.9999006       -142.2864        0.9999007       -142.2864      0.005237835        82.17445
0.9                  0.005277111         173.238        0.9998991       -143.8855        0.9998991       -143.8855      0.005233875        79.04714
0.91                 0.005273919        173.1682        0.9998977       -145.4846        0.9998978       -145.4846      0.005230015        75.92021
0.92                 0.005270684        173.0986         0.999896       -147.0837         0.999896       -147.0837      0.005225911         72.7925
0.93                 0.005267438        173.0292        0.9998947       -148.6829        0.9998948       -148.6828      0.005222051        69.66392
0.94                 0.005264165          172.96        0.9998932        -150.282        0.9998933        -150.282      0.005218038        66.53718
0.95                 0.005260833        172.8909        0.9998916       -151.8812        0.9998917       -151.8811      0.005213935        63.41066
0.96                 0.005257489         172.822          0.99989       -153.4803        0.9998899       -153.4803      0.005209733        60.28344
0.97                 0.005254117        172.7534        0.9998884       -155.0795        0.9998884       -155.0795      0.005205584        57.15449
0.98                 0.005250734        172.6849        0.9998869       -156.6787         0.999887       -156.6787      0.005201475        54.02663
0.99                 0.005247291        172.6166        0.9998852       -158.2779        0.9998853       -158.2779      0.005197194        50.89839
1                    0.005243851        172.5486        0.9998835       -159.8772        0.9998835       -159.8772      0.005192898        47.77124
1.01                 0.005240384        172.4807        0.9998819       -161.4764         0.999882       -161.4764       0.00518865        44.64134
1.02                 0.005236872         172.413        0.9998802       -163.0757        0.9998801       -163.0757      0.005184237        41.51223
1.03                 0.005233317        172.3455        0.9998785        -164.675        0.9998785       -164.6749      0.005179865        38.38403
1.04                 0.005229781        172.2783        0.9998769       -166.2742         0.999877       -166.2742      0.005175564        35.25458
1.05                   0.0052262        172.2112        0.9998752       -167.8735        0.9998752       -167.8735      0.005171117        32.12681
1.06                 0.005222576        172.1443        0.9998734       -169.4729        0.9998733       -169.4729      0.005166581        28.99599
1.07                 0.005218938        172.0776        0.9998716       -171.0722        0.9998716       -171.0722      0.005162045        25.86407
1.08                 0.005215288        172.0111        0.9998698       -172.6715        0.9998697       -172.6715      0.005157464         22.7348
1.09                 0.005211593        171.9449         0.999868       -174.2709         0.999868       -174.2709      0.005152961        19.60676
1.1                  0.005207901        171.8788        0.9998661       -175.8703        0.9998661       -175.8703       0.00514828        16.47454
1.11                 0.005204164         171.813        0.9998643       -177.4697        0.9998643       -177.4697      0.005143692         13.3448
1.12                 0.005200414        171.7473        0.9998624       -179.0691        0.9998623       -179.0691      0.005138958        10.21544
1.13                 0.005196619        171.6818        0.9998605        179.3315        0.9998604        179.3315      0.005134206        7.083094
1.14                  0.00519281        171.6166        0.9998587        177.7321        0.9998587        177.7321      0.005129535        3.951807
1.15                 0.005188973        171.5515        0.9998567        176.1326        0.9998567        176.1326      0.005124718       0.8208185
1.16                 0.005185153        171.4867        0.9998548        174.5331        0.9998547        174.5331      0.005119892       -2.311362
1.17                 0.005181272        171.4221        0.9998527        172.9337        0.9998527        172.9337      0.005115002       -5.442734
1.18                 0.005177378        171.3576        0.9998508        171.3342        0.9998507        171.3342      0.005110183       -8.574639
1.19                  0.00517347        171.2934        0.9998488        169.7346        0.9998489        169.7346      0.005105286       -11.70713
1.2                  0.005169532        171.2294        0.9998468        168.1351        0.9998467        168.1351       0.00510033       -14.83938
1.21                  0.00516558        171.1656        0.9998447        166.5356        0.9998447        166.5356      0.005095372       -17.97094
1.22                 0.005161583         171.102        0.9998427         164.936        0.9998428         164.936      0.005090408       -21.10459
1.23                 0.005157603        171.0386        0.9998407        163.3364        0.9998407        163.3364      0.005085425       -24.23663
1.24                 0.005153562        170.9753        0.9998384        161.7368        0.9998384        161.7368      0.005080268       -27.36969
1.25                 0.005149522        170.9123        0.9998365        160.1372        0.9998365        160.1372      0.005075278       -30.50372
1.26                 0.005145452        170.8495        0.9998342        158.5376        0.9998341        158.5376      0.005070047       -33.63645
1.27                   0.0051414        170.7869        0.9998321        156.9379        0.9998322        156.9379       0.00506501       -36.77048
1.28                 0.005137301        170.7245        0.9998299        155.3382          0.99983        155.3382      0.005059829       -39.90431
1.29                 0.005133157        170.6623        0.9998276        153.7386        0.9998276        153.7386      0.005054529       -43.03877
1.3                  0.005129061        170.6003        0.9998254        152.1389        0.9998254        152.1389      0.005049321        -46.1725
1.31                 0.005124903        170.5385        0.9998231        150.5391         0.999823        150.5391      0.005044014       -49.30721
1.32                 0.005120699        170.4768         0.999821        148.9394        0.9998211        148.9394      0.005038846       -52.44188
1.33                 0.005116528        170.4154        0.9998187        147.3396        0.9998188        147.3396       0.00503356       -55.57636
1.34                  0.00511231        170.3542        0.9998163        145.7399        0.9998164        145.7399      0.005028169       -58.71124
1.35                 0.005108078        170.2931        0.9998138        144.1401        0.9998137        144.1401      0.005022649       -61.84611
1.36                 0.005103847        170.2323        0.9998116        142.5403        0.9998116        142.5403      0.005017353        -64.9812
1.37                 0.005099585        170.1716        0.9998092        140.9404        0.9998092        140.9404      0.005011945       -68.11627
1.38                 0.005095308        170.1111        0.9998067        139.3406        0.9998067        139.3406      0.005006403       -71.25309
1.39                 0.005091001        170.0508        0.9998042        137.7407        0.9998042        137.7407      0.005000916       -74.38841
1.4                  0.005086694        169.9907        0.9998019        136.1408        0.9998018        136.1408      0.004995436       -77.52385
1.41                 0.005082357        169.9308        0.9997994        134.5409        0.9997994        134.5409      0.004989901       -80.65969
1.42                 0.005078004         169.871        0.9997971         132.941        0.9997971         132.941      0.004984415       -83.79629
1.43                 0.005073652        169.8114        0.9997944        131.3411        0.9997944        131.3411      0.004978756       -86.93245
1.44                 0.005069254         169.752        0.9997919        129.7411         0.999792        129.7411      0.004973133       -90.06961
1.45                 0.005064872        169.6928        0.9997893        128.1411        0.9997894        128.1411      0.004967481       -93.20606
1.46                 0.005060459        169.6337        0.9997867        126.5411        0.9997867        126.5411      0.004961772       -96.34284
1.47                 0.005056031        169.5748        0.9997843        124.9411        0.9997844        124.9411      0.004956184       -99.47986
1.48                 0.005051572        169.5161        0.9997816         123.341        0.9997817         123.341      0.004950433       -102.6168
1.49                 0.005047129        169.4576        0.9997789         121.741        0.9997789         121.741      0.004944633       -105.7539
1.5                  0.005042655        169.3992        0.9997763        120.1409        0.9997762        120.1409      0.004938875       -108.8912
1.51                 0.005038166        169.3409        0.9997735        118.5408        0.9997734        118.5408      0.004933016       -112.0287
1.52                 0.005033645        169.2828        0.9997709        116.9407        0.9997709        116.9407      0.004927228        -115.167
1.53                 0.005029125        169.2249        0.9997682        115.3405        0.9997682        115.3405      0.004921379       -118.3047
1.54                  0.00502459        169.1672        0.9997654        113.7404        0.9997654        113.7404      0.004915485       -121.4426
1.55                 0.005020039        169.1096        0.9997626        112.1402        0.9997626        112.1402      0.004909618        -124.581
1.56                 0.005015457        169.0521        0.9997599          110.54        0.9997599          110.54      0.004903692       -127.7189
1.57                 0.005010876        168.9948        0.9997571        108.9398        0.9997571        108.9398      0.004897733       -130.8574
1.58                 0.005006294        168.9377        0.9997542        107.3395        0.9997541        107.3395      0.004891761       -133.9958
1.59                 0.005001666        168.8807        0.9997515        105.7392        0.9997514        105.7392      0.004885813       -137.1348
1.6                  0.004997022        168.8238        0.9997485        104.1389        0.9997485        104.1389      0.004879734       -140.2732
1.61                 0.004992379        168.7671        0.9997456        102.5386        0.9997456        102.5386      0.004873665        -143.412
1.62                 0.004987719        168.7105        0.9997428        100.9383        0.9997428        100.9383      0.004867643       -146.5513
1.63                 0.004983045         168.654        0.9997397        99.33794        0.9997397        99.33794      0.004861471       -149.6902
1.64                 0.004978339        168.5977        0.9997368        97.73758        0.9997367        97.73758       0.00485534       -152.8293
1.65                 0.004973648        168.5416        0.9997338        96.13718        0.9997337        96.13718      0.004849171       -155.9686
1.66                 0.004968896        168.4855        0.9997309        94.53676        0.9997309        94.53676      0.004843035       -159.1081
1.67                 0.004964174        168.4296        0.9997278        92.93631        0.9997277        92.93631      0.004836802       -162.2475
1.68                 0.004959421        168.3738        0.9997248        91.33586        0.9997249        91.33586      0.004830623       -165.3872
1.69                 0.004954652        168.3182        0.9997217        89.73537        0.9997216        89.73537      0.004824316       -168.5268
1.7                  0.004949868        168.2627        0.9997187        88.13486        0.9997186        88.13487      0.004818106       -171.6661
1.71                 0.004945037        168.2072        0.9997155        86.53433        0.9997155        86.53433      0.004811761       -174.8066
1.72                 0.004940221        168.1519        0.9997124        84.93378        0.9997124        84.93378        0.0048054       -177.9465
1.73                 0.004935389        168.0968        0.9997093        83.33319        0.9997093        83.33319       0.00479909        178.9133
1.74                 0.004930541        168.0418         0.999706         81.7326        0.9997059         81.7326      0.004792623        175.7734
1.75                 0.004925662        167.9868        0.9997029        80.13197        0.9997028        80.13197      0.004786232         172.633
1.76                 0.004920768         167.932        0.9996997        78.53133        0.9996996        78.53133      0.004779777        169.4926
1.77                 0.004915872        167.8773        0.9996965        76.93065        0.9996965        76.93065      0.004773356        166.3521
1.78                 0.004910946        167.8227        0.9996933        75.32997        0.9996933        75.32997      0.004766898        163.2118
1.79                 0.004906034        167.7683          0.99969        73.72924        0.9996899        73.72924      0.004760381        160.0708
1.8                   0.00490106        167.7139        0.9996867        72.12851        0.9996866        72.12851      0.004753816        156.9303
1.81                 0.004896085        167.6597        0.9996834        70.52774        0.9996834        70.52774      0.004747279        153.7895
1.82                  0.00489111        167.6056        0.9996801        68.92695        0.9996801        68.92695      0.004740731        150.6486
1.83                 0.004886103        167.5516        0.9996768        67.32614        0.9996769        67.32614      0.004734108        147.5075
1.84                  0.00488108        167.4977        0.9996734         65.7253        0.9996734         65.7253      0.004727468        144.3668
1.85                 0.004876025        167.4439        0.9996701        64.12443          0.99967        64.12443      0.004720756        141.2254
1.86                 0.004870969        167.3902        0.9996665        62.52357        0.9996665        62.52357      0.004714042        138.0846
1.87                 0.004865882        167.3366        0.9996632        60.92264        0.9996632        60.92264      0.004707364        134.9431
1.88                 0.004860763        167.2831        0.9996597        59.32172        0.9996597        59.32172      0.004700546        131.8025
1.89                 0.004855658        167.2298        0.9996563        57.72076        0.9996563        57.72076      0.004693797        128.6605
1.9                  0.004850521        167.1765        0.9996528        56.11977        0.9996528        56.11977      0.004686955        125.5189
1.91                 0.004845368        167.1234        0.9996493        54.51876        0.9996493        54.51876      0.004680139        122.3776
1.92                 0.004840198        167.0704        0.9996458        52.91773        0.9996458        52.91773      0.004673305        119.2362
1.93                 0.004834997        167.0174        0.9996422        51.31667        0.9996421        51.31667       0.00466635        116.0943
1.94                 0.004829794        166.9647        0.9996387        49.71558        0.9996387        49.71558      0.004659479        112.9523
1.95                 0.004824543        166.9119        0.9996352        48.11447        0.9996351        48.11447      0.004652548        109.8107
1.96                 0.004819291        166.8593        0.9996315        46.51334        0.9996315        46.51334      0.004645548        106.6686
1.97                 0.004814022        166.8069        0.9996279        44.91218        0.9996279        44.91218      0.004638573        103.5276
1.98                 0.004808736        166.7545        0.9996242          43.311        0.9996242          43.311      0.004631529        100.3849