! TOUCHSTONE file generated by CST MICROWAVE STUDIO
! Date and time: Mon Feb 10 02:50:38 2025
! Project name: MSLine.cst
! Parameters = {Lamb=0.05; C=0; L=50; Li=0; R=1e-13; W=20; dlump=2; er=2; h=0.8; w1=2.62}
! Header version: 2024
! Port assignment regex: !\s*Touchstone port\s*([0-9]+)\s*=\s*(CST MWS port|CST DES external port|CST DES block port)\s*(.+)\s* \(\"(.*)\"\)(\s*mode\s*([0-9]+))?.*
! Touchstone port assignment:
! Touchstone port 1 = CST MWS port 1 ("")
! Touchstone port 2 = CST MWS port 2 ("")
# GHz S MA R 50
0                    0.003888128             180         0.999983              -0         0.999983              -0      0.003888128   -1.001791e-05
0.01                 0.003888585       -179.5997         0.999983      -0.8047453         0.999983      -0.8047453      0.003888585       -2.009841
0.02                 0.003889954       -179.1998         0.999983       -1.609491         0.999983       -1.609491      0.003889954       -4.019157
0.03                 0.003892235        -178.801        0.9999829       -2.414236        0.9999827       -2.414236      0.003892234       -6.027449
0.04                 0.003895423       -178.4037        0.9999829       -3.218982        0.9999828       -3.218982      0.003895423       -8.034226
0.05                 0.003899516       -178.0084        0.9999828       -4.023728        0.9999827       -4.023728      0.003899516       -10.03901
0.06                 0.003904509       -177.6157        0.9999827       -4.828475        0.9999827       -4.828475      0.003904509       -12.04125
0.07                 0.003910396       -177.2259        0.9999825       -5.633221        0.9999825       -5.633221      0.003910396        -14.0405
0.08                  0.00391717       -176.8397        0.9999825       -6.437967        0.9999825       -6.437967       0.00391717       -16.03628
0.09                 0.003924823       -176.4573        0.9999823       -7.242716        0.9999823       -7.242716      0.003924823       -18.02812
0.1                  0.003933347       -176.0793        0.9999822       -8.047462        0.9999822       -8.047462      0.003933347       -20.01558
0.11                 0.003942731       -175.7062         0.999982       -8.852212        0.9999819       -8.852212      0.003942731       -21.99821
0.12                 0.003952965       -175.3383        0.9999818        -9.65696        0.9999817       -9.656961      0.003952965       -23.97558
0.13                 0.003964039       -174.9761        0.9999815       -10.46171        0.9999814       -10.46171      0.003964039       -25.94732
0.14                 0.003975938       -174.6199        0.9999814       -11.26646        0.9999813       -11.26646      0.003975938       -27.91298
0.15                  0.00398865       -174.2702        0.9999812       -12.07121        0.9999812       -12.07121       0.00398865       -29.87222
0.16                 0.004002162       -173.9272        0.9999808       -12.87597        0.9999808       -12.87597      0.004002162        -31.8247
0.17                 0.004016459       -173.5914        0.9999806       -13.68072        0.9999806       -13.68072      0.004016459       -33.77003
0.18                 0.004031525        -173.263        0.9999803       -14.48547        0.9999803       -14.48547      0.004031525       -35.70795
0.19                 0.004047346       -172.9423        0.9999799       -15.29023        0.9999799       -15.29023      0.004047345       -37.63812
0.2                  0.004063903       -172.6297        0.9999796       -16.09498        0.9999795       -16.09498      0.004063903       -39.56027
0.21                 0.004081181       -172.3253        0.9999793       -16.89974        0.9999793       -16.89974      0.004081181       -41.47415
0.22                 0.004099163       -172.0295        0.9999789        -17.7045        0.9999789        -17.7045      0.004099163       -43.37951
0.23                  0.00411783       -171.7424        0.9999786       -18.50926        0.9999786       -18.50926       0.00411783       -45.27612
0.24                 0.004137164       -171.4642        0.9999782       -19.31402        0.9999782       -19.31402      0.004137164        -47.1638
0.25                 0.004157147       -171.1952        0.9999778       -20.11878        0.9999778       -20.11878      0.004157147       -49.04235
0.26                 0.004177759       -170.9355        0.9999773       -20.92355        0.9999772       -20.92355      0.004177759       -50.91164
0.27                 0.004198983       -170.6851        0.9999769       -21.72831        0.9999769       -21.72832      0.004198983       -52.77148
0.28                 0.004220797       -170.4444        0.9999765       -22.53308        0.9999765       -22.53308      0.004220797       -54.62177
0.29                 0.004243183       -170.2133         0.999976       -23.33785         0.999976       -23.33785      0.004243183       -56.46239
0.3                  0.004266122        -169.992        0.9999754       -24.14262        0.9999754       -24.14262      0.004266122       -58.29325
0.31                 0.004289593       -169.7805         0.999975       -24.94739         0.999975       -24.94739      0.004289593       -60.11429
0.32                 0.004313576       -169.5789        0.9999744       -25.75217        0.9999743       -25.75217      0.004313575       -61.92543
0.33                 0.004338051       -169.3872        0.9999738       -26.55694        0.9999738       -26.55694      0.004338051       -63.72666
0.34                 0.004362999       -169.2056        0.9999732       -27.36172        0.9999732       -27.36172      0.004362999       -65.51787
0.35                 0.004388399       -169.0339        0.9999727        -28.1665        0.9999727        -28.1665      0.004388399       -67.29912
0.36                 0.004414232       -168.8722         0.999972       -28.97128         0.999972       -28.97128      0.004414231       -69.07039
0.37                 0.004440477       -168.7204        0.9999715       -29.77606        0.9999715       -29.77606      0.004440477       -70.83167
0.38                 0.004467115       -168.5787        0.9999708       -30.58084        0.9999708       -30.58085      0.004467115       -72.58301
0.39                 0.004494127       -168.4468        0.9999702       -31.38563        0.9999702       -31.38563      0.004494126       -74.32443
0.4                  0.004521491       -168.3249        0.9999696       -32.19042        0.9999696       -32.19042      0.004521491       -76.05594
0.41                 0.004549189       -168.2128        0.9999688       -32.99521        0.9999688       -32.99522      0.004549189       -77.77767
0.42                 0.004577203       -168.1104        0.9999682       -33.80001        0.9999681       -33.80001      0.004577203       -79.48959
0.43                 0.004605512       -168.0178        0.9999675        -34.6048        0.9999675        -34.6048      0.004605511       -81.19181
0.44                 0.004634096       -167.9348        0.9999667       -35.40961        0.9999666       -35.40961      0.004634096       -82.88444
0.45                 0.004662939       -167.8613        0.9999659       -36.21441        0.9999659       -36.21441      0.004662939        -84.5675
0.46                 0.004692021       -167.7973        0.9999652       -37.01921        0.9999652       -37.01921       0.00469202       -86.24112
0.47                 0.004721324       -167.7426        0.9999645       -37.82402        0.9999645       -37.82402      0.004721323       -87.90539
0.48                 0.004750829       -167.6973        0.9999636       -38.62883        0.9999636       -38.62883      0.004750829        -89.5604
0.49                 0.004780519        -167.661        0.9999628       -39.43364        0.9999628       -39.43364      0.004780519       -91.20628
0.5                  0.004810376       -167.6338        0.9999619       -40.23845        0.9999618       -40.23845      0.004810376       -92.84313
0.51                 0.004840383       -167.6155        0.9999611       -41.04327        0.9999611       -41.04327      0.004840383       -94.47106
0.52                 0.004870522        -167.606        0.9999602        -41.8481        0.9999601        -41.8481      0.004870522        -96.0902
0.53                 0.004900778       -167.6052        0.9999593       -42.65292        0.9999593       -42.65292      0.004900777       -97.70062
0.54                 0.004931132        -167.613        0.9999585       -43.45774        0.9999585       -43.45774      0.004931132        -99.3025
0.55                 0.004961569       -167.6292        0.9999576       -44.26257        0.9999575       -44.26257      0.004961569        -100.896
0.56                 0.004992072       -167.6537        0.9999567        -45.0674        0.9999567        -45.0674      0.004992072       -102.4811
0.57                 0.005022625       -167.6864        0.9999557       -45.87224        0.9999557       -45.87224      0.005022625       -104.0581
0.58                 0.005053213       -167.7271        0.9999547       -46.67708        0.9999546       -46.67708      0.005053213       -105.6271
0.59                 0.005083821       -167.7757        0.9999537       -47.48193        0.9999537       -47.48193       0.00508382       -107.1881
0.6                  0.005114433       -167.8322        0.9999527       -48.28677        0.9999528       -48.28677      0.005114433       -108.7413
0.61                 0.005145035       -167.8963        0.9999517       -49.09162        0.9999517       -49.09162      0.005145035        -110.287
0.62                 0.005175611       -167.9679        0.9999507       -49.89648        0.9999507       -49.89648      0.005175611       -111.8251
0.63                 0.005206149       -168.0469        0.9999495       -50.70133        0.9999495       -50.70133      0.005206149       -113.3558
0.64                 0.005236633       -168.1331        0.9999485       -51.50619        0.9999485       -51.50619      0.005236633       -114.8793
0.65                  0.00526705       -168.2265        0.9999474       -52.31106        0.9999474       -52.31106       0.00526705       -116.3957
0.66                 0.005297385       -168.3268        0.9999462       -53.11593        0.9999462       -53.11593      0.005297385        -117.905
0.67                 0.005327628        -168.434        0.9999452        -53.9208        0.9999452        -53.9208      0.005327628       -119.4076
0.68                 0.005357763        -168.548         0.999944       -54.72567         0.999944       -54.72567      0.005357762       -120.9033
0.69                 0.005387778       -168.6685        0.9999429       -55.53055        0.9999429       -55.53055      0.005387778       -122.3926
0.7                   0.00541766       -168.7955        0.9999417       -56.33543        0.9999417       -56.33543       0.00541766       -123.8753
0.71                 0.005447398       -168.9289        0.9999405       -57.14032        0.9999405       -57.14032      0.005447398       -125.3517
0.72                 0.005476979       -169.0685        0.9999394        -57.9452        0.9999394        -57.9452       0.00547698       -126.8219
0.73                 0.005506391       -169.2141        0.9999382        -58.7501        0.9999382        -58.7501      0.005506392       -128.2861
0.74                 0.005535623       -169.3658        0.9999369         -59.555         0.999937       -59.55499      0.005535624       -129.7442
0.75                 0.005564664       -169.5233        0.9999355       -60.35992        0.9999355       -60.35992      0.005564664       -131.1965
0.76                 0.005593501       -169.6865        0.9999343       -61.16482        0.9999343       -61.16482      0.005593501       -132.6432
0.77                 0.005622124       -169.8553         0.999933       -61.96973         0.999933       -61.96973      0.005622124       -134.0841
0.78                 0.005650524       -170.0297        0.9999318       -62.77464        0.9999317       -62.77464      0.005650523       -135.5196
0.79                 0.005678688       -170.2094        0.9999304       -63.57956        0.9999304       -63.57956      0.005678688       -136.9498
0.8                  0.005706606       -170.3943        0.9999291       -64.38449        0.9999291       -64.38449      0.005706607       -138.3747
0.81                  0.00573427       -170.5844        0.9999277       -65.18942        0.9999276       -65.18942      0.005734269       -139.7944
0.82                 0.005761668       -170.7796        0.9999263       -65.99436        0.9999262       -65.99436      0.005761667       -141.2091
0.83                  0.00578879       -170.9797        0.9999249       -66.79929        0.9999249       -66.79929       0.00578879       -142.6189
0.84                 0.005815628       -171.1846        0.9999236       -67.60424        0.9999236       -67.60424      0.005815628       -144.0239
0.85                 0.005842174       -171.3943         0.999922       -68.40919         0.999922       -68.40919      0.005842174       -145.4241
0.86                 0.005868415       -171.6085        0.9999207       -69.21414        0.9999207       -69.21414      0.005868415       -146.8198
0.87                 0.005894346       -171.8273        0.9999192       -70.01909        0.9999193       -70.01909      0.005894346       -148.2109
0.88                 0.005919956       -172.0505        0.9999177       -70.82407        0.9999177       -70.82407      0.005919955       -149.5977
0.89                 0.005945236        -172.278        0.9999163       -71.62902        0.9999163       -71.62902      0.005945236         -150.98
0.9                   0.00597018       -172.5097        0.9999148         -72.434        0.9999148         -72.434       0.00597018       -152.3583
0.91                 0.005994778       -172.7456        0.9999132       -73.23898        0.9999133       -73.23898      0.005994778       -153.7324
0.92                 0.006019023       -172.9855        0.9999115       -74.04397        0.9999115       -74.04397      0.006019023       -155.1025
0.93                 0.006042907       -173.2293        0.9999099       -74.84896          0.99991       -74.84897      0.006042906       -156.4686
0.94                 0.006066421       -173.4769        0.9999084       -75.65396        0.9999083       -75.65396      0.006066421        -157.831
0.95                 0.006089559       -173.7284        0.9999068       -76.45895        0.9999068       -76.45895      0.006089559       -159.1895
0.96                 0.006112314       -173.9835        0.9999052       -77.26396        0.9999052       -77.26396      0.006112314       -160.5444
0.97                 0.006134678       -174.2421        0.9999036       -78.06896        0.9999036       -78.06896      0.006134679       -161.8958
0.98                 0.006156644       -174.5043        0.9999019         -78.874        0.9999018       -78.87399      0.006156645       -163.2437
0.99                 0.006178207       -174.7699        0.9999002         -79.679        0.9999001         -79.679      0.006178207       -164.5881
1                    0.006199358       -175.0388        0.9998986       -80.48404        0.9998985       -80.48404      0.006199358       -165.9292
1.01                  0.00622009        -175.311        0.9998968       -81.28907        0.9998968       -81.28907       0.00622009       -167.2671
1.02                   0.0062404       -175.5864        0.9998951        -82.0941        0.9998951        -82.0941        0.0062404       -168.6018
1.03                 0.006260279       -175.8648        0.9998934       -82.89915        0.9998934       -82.89915      0.006260279       -169.9335
1.04                 0.006279722       -176.1463        0.9998917        -83.7042        0.9998917        -83.7042      0.006279723       -171.2621
1.05                 0.006298723       -176.4307        0.9998898       -84.50926        0.9998898       -84.50926      0.006298723       -172.5878
1.06                 0.006317277        -176.718        0.9998881       -85.31432         0.999888       -85.31432      0.006317277       -173.9106
1.07                 0.006335377       -177.0081        0.9998863       -86.11938        0.9998862       -86.11938      0.006335377       -175.2307
1.08                 0.006353018       -177.3009        0.9998844       -86.92447        0.9998844       -86.92447      0.006353018        -176.548
1.09                 0.006370195       -177.5964        0.9998827       -87.72954        0.9998827       -87.72954      0.006370195       -177.8627
1.1                  0.006386903       -177.8944        0.9998808       -88.53463        0.9998808       -88.53463      0.006386903       -179.1748
1.11                 0.006403138        -178.195        0.9998789       -89.33973        0.9998789       -89.33973      0.006403138        179.5156
1.12                 0.006418893       -178.4981         0.999877       -90.14482        0.9998769       -90.14482      0.006418892        178.2084
1.13                 0.006434163       -178.8035        0.9998751       -90.94992         0.999875       -90.94992      0.006434163        176.9037
1.14                 0.006448946       -179.1112        0.9998732       -91.75504        0.9998731       -91.75504      0.006448946        175.6012
1.15                 0.006463236       -179.4212        0.9998712       -92.56016        0.9998712       -92.56016      0.006463236        174.3009
1.16                 0.006477028       -179.7334        0.9998693       -93.36528        0.9998693       -93.36528      0.006477029        173.0029
1.17                  0.00649032        179.9522        0.9998673       -94.17041        0.9998672       -94.17041       0.00649032         171.707
1.18                 0.006503105        179.6358        0.9998653       -94.97555        0.9998652       -94.97557      0.006503106        170.4131
1.19                 0.006515382        179.3174        0.9998633       -95.78069        0.9998632        -95.7807      0.006515383        169.1212
1.2                  0.006527145        178.9971        0.9998612       -96.58585        0.9998612       -96.58585      0.006527145        167.8312
1.21                 0.006538391        178.6748        0.9998592       -97.39101        0.9998592       -97.39101      0.006538392        166.5432
1.22                 0.006549118        178.3507        0.9998571       -98.19616        0.9998571       -98.19616      0.006549118         165.257
1.23                  0.00655932        178.0249        0.9998551       -99.00135         0.999855       -99.00136       0.00655932        163.9725
1.24                 0.006568994        177.6973        0.9998529       -99.80652        0.9998529       -99.80652      0.006568994        162.6897
1.25                 0.006578139         177.368        0.9998508       -100.6117        0.9998508       -100.6117      0.006578139        161.4086
1.26                  0.00658675        177.0372        0.9998487       -101.4169        0.9998486       -101.4169      0.006586751         160.129
1.27                 0.006594825        176.7048        0.9998465       -102.2221        0.9998465       -102.2221      0.006594825        158.8511
1.28                  0.00660236        176.3709        0.9998444       -103.0273        0.9998444       -103.0273      0.006602361        157.5745
1.29                 0.006609355        176.0355        0.9998422       -103.8325        0.9998421       -103.8325      0.006609355        156.2995
1.3                  0.006615804        175.6987          0.99984       -104.6377        0.9998399       -104.6377      0.006615805        155.0258
1.31                 0.006621706        175.3607        0.9998377        -105.443        0.9998377        -105.443      0.006621707        153.7534
1.32                 0.006627059        175.0213        0.9998354       -106.2482        0.9998353       -106.2482       0.00662706        152.4823
1.33                 0.006631862        174.6807        0.9998332       -107.0535        0.9998332       -107.0535      0.006631862        151.2124
1.34                  0.00663611        174.3389        0.9998309       -107.8587         0.999831       -107.8587      0.006636111        149.9437
1.35                 0.006639803        173.9959        0.9998287        -108.664        0.9998287        -108.664      0.006639804        148.6761
1.36                 0.006642939        173.6519        0.9998264       -109.4692        0.9998265       -109.4692       0.00664294        147.4096
1.37                 0.006645516        173.3069         0.999824       -110.2745        0.9998241       -110.2745      0.006645517        146.1441
1.38                 0.006647533        172.9608        0.9998217       -111.0798        0.9998217       -111.0798      0.006647533        144.8796
1.39                 0.006648986        172.6139        0.9998193       -111.8851        0.9998193       -111.8851      0.006648987         143.616
1.4                  0.006649877         172.266         0.999817       -112.6904         0.999817       -112.6904      0.006649878        142.3533
1.41                 0.006650202        171.9173        0.9998146       -113.4957        0.9998146       -113.4957      0.006650203        141.0914
1.42                 0.006649962        171.5678        0.9998121        -114.301         0.999812        -114.301      0.006649962        139.8301
1.43                 0.006649154        171.2176        0.9998097       -115.1063        0.9998096       -115.1063      0.006649155        138.5698
1.44                 0.006647778        170.8666        0.9998073       -115.9117        0.9998073       -115.9117      0.006647779        137.3101
1.45                 0.006645833        170.5151        0.9998048        -116.717        0.9998047        -116.717      0.006645834         136.051
1.46                 0.006643319        170.1629        0.9998023       -117.5223        0.9998023       -117.5223       0.00664332        134.7924
1.47                 0.006640235        169.8102        0.9997998       -118.3277        0.9997998       -118.3277      0.006640236        133.5344
1.48                  0.00663658         169.457        0.9997973       -119.1331        0.9997971       -119.1331      0.006636581        132.2769
1.49                 0.006632354        169.1033        0.9997948       -119.9384        0.9997947       -119.9384      0.006632355        131.0198
1.5                  0.006627557        168.7493        0.9997922       -120.7438        0.9997922       -120.7438      0.006627558        129.7631
1.51                 0.006622187        168.3948        0.9997896       -121.5492        0.9997896       -121.5492      0.006622188        128.5068
1.52                 0.006616247        168.0401        0.9997871       -122.3546         0.999787       -122.3546      0.006616247        127.2507
1.53                 0.006609736        167.6851        0.9997845         -123.16        0.9997845         -123.16      0.006609737        125.9949
1.54                 0.006602653        167.3299        0.9997818       -123.9654        0.9997818       -123.9654      0.006602653        124.7393
1.55                 0.006594999        166.9745        0.9997791       -124.7708         0.999779       -124.7708         0.006595        123.4838
1.56                 0.006586774         166.619        0.9997765       -125.5763        0.9997766       -125.5763      0.006586775        122.2284
1.57                 0.006577979        166.2635        0.9997738       -126.3817        0.9997738       -126.3817      0.006577979        120.9731
1.58                 0.006568614        165.9079        0.9997711       -127.1872        0.9997711       -127.1872      0.006568615        119.7178
1.59                  0.00655868        165.5523        0.9997684       -127.9926        0.9997683       -127.9926      0.006558681        118.4624
1.6                   0.00654818        165.1969        0.9997657       -128.7981        0.9997658       -128.7981       0.00654818        117.2069
1.61                 0.006537112        164.8415        0.9997629       -129.6036        0.9997629       -129.6036      0.006537113        115.9514
1.62                 0.006525478        164.4863        0.9997602       -130.4091        0.9997602       -130.4091      0.006525478        114.6956
1.63                  0.00651328        164.1314        0.9997575       -131.2146        0.9997574       -131.2146       0.00651328        113.4395
1.64                 0.006500517        163.7767        0.9997546       -132.0201        0.9997546         -132.02      0.006500517        112.1832
1.65                 0.006487193        163.4224        0.9997519       -132.8256        0.9997518       -132.8256      0.006487193        110.9264
1.66                 0.006473308        163.0685        0.9997489       -133.6311        0.9997489       -133.6311      0.006473309        109.6693
1.67                 0.006458865         162.715        0.9997462       -134.4367        0.9997463       -134.4367      0.006458865        108.4118
1.68                 0.006443863        162.3619        0.9997432       -135.2422        0.9997432       -135.2422      0.006443864        107.1537
1.69                 0.006428307        162.0095        0.9997404       -136.0477        0.9997405       -136.0477      0.006428307        105.8951
1.7                  0.006412198        161.6576        0.9997375       -136.8533        0.9997375       -136.8533      0.006412198        104.6358
1.71                 0.006395537        161.3063        0.9997345       -137.6589        0.9997345       -137.6589      0.006395537        103.3759
1.72                 0.006378327        160.9558        0.9997315       -138.4644        0.9997315       -138.4644      0.006378327        102.1153
1.73                  0.00636057         160.606        0.9997286         -139.27        0.9997286         -139.27       0.00636057         100.854
1.74                 0.006342268         160.257        0.9997256       -140.0756        0.9997256       -140.0756      0.006342268         99.5917
1.75                 0.006323424        159.9089        0.9997228       -140.8813        0.9997229       -140.8813      0.006323424        98.32855
1.76                 0.006304041        159.5618        0.9997196       -141.6869        0.9997196       -141.6869      0.006304041        97.06447
1.77                 0.006284122        159.2156        0.9997166       -142.4925        0.9997166       -142.4925      0.006284122        95.79941
1.78                 0.006263668        158.8705        0.9997137       -143.2981        0.9997137       -143.2981      0.006263667         94.5332
1.79                 0.006242684        158.5265        0.9997105       -144.1038        0.9997105       -144.1038      0.006242684        93.26596
1.8                  0.006221172        158.1837        0.9997075       -144.9095        0.9997075       -144.9095      0.006221172         91.9974
1.81                 0.006199137        157.8421        0.9997044       -145.7151        0.9997043       -145.7151      0.006199137        90.72764
1.82                 0.006176579        157.5018        0.9997012       -146.5208        0.9997012       -146.5208      0.006176579        89.45662
1.83                 0.006153504        157.1629         0.999698       -147.3265        0.9996982       -147.3265      0.006153504        88.18419
1.84                 0.006129915        156.8255         0.999695       -148.1322         0.999695       -148.1322      0.006129915        86.91017
1.85                 0.006105815        156.4895        0.9996917       -148.9379        0.9996917       -148.9379      0.006105815        85.63472
1.86                 0.006081209        156.1551        0.9996887       -149.7436        0.9996887       -149.7436      0.006081208         84.3577
1.87                   0.0060561        155.8224        0.9996854       -150.5494        0.9996855       -150.5494      0.006056099        83.07892
1.88                 0.006030493        155.4913        0.9996822       -151.3551        0.9996822       -151.3551      0.006030492        81.79851
1.89                 0.006004391        155.1621         0.999679       -152.1609        0.9996791       -152.1609       0.00600439        80.51618
1.9                  0.005977798        154.8347        0.9996756       -152.9666        0.9996756       -152.9666      0.005977798         79.2321
1.91                  0.00595072        154.5093        0.9996724       -153.7724        0.9996725       -153.7724      0.005950719         77.9459
1.92                  0.00592316        154.1859        0.9996691       -154.5782        0.9996691       -154.5782       0.00592316        76.65772
1.93                 0.005895125        153.8647        0.9996657        -155.384        0.9996657        -155.384      0.005895124        75.36742
1.94                 0.005866617        153.5456        0.9996624       -156.1898        0.9996625       -156.1898      0.005866616        74.07487
1.95                 0.005837643        153.2287         0.999659       -156.9956         0.999659       -156.9956      0.005837643        72.78003
1.96                 0.005808207        152.9143        0.9996557       -157.8014        0.9996557       -157.8014      0.005808206        71.48284
1.97                 0.005778315        152.6023        0.9996524       -158.6073        0.9996525       -158.6073      0.005778314        70.18319
1.98                 0.005747971        152.2928        0.9996489       -159.4131         0.999649       -159.4131       0.00574797        68.88092