! TOUCHSTONE file generated by CST MICROWAVE STUDIO
! Date and time: Mon Feb 10 02:50:38 2025
! Project name: MSLine.cst
! Parameters = {Lamb=0.05; C=0; L=25; Li=0; R=1e-13; W=20; dlump=2; er=2; h=0.8; w1=2.62}
! Header version: 2024
! Port assignment regex: !\s*Touchstone port\s*([0-9]+)\s*=\s*(CST MWS port|CST DES external port|CST DES block port)\s*(.+)\s* \(\"(.*)\"\)(\s*mode\s*([0-9]+))?.*
! Touchstone port assignment:
! Touchstone port 1 = CST MWS port 1 ("")
! Touchstone port 2 = CST MWS port 2 ("")
# GHz S MA R 50
0                   0.0009958083              -0        0.9999943              -0        0.9999943              -0     0.0009958082             180
0.01                0.0009960411       -1.773653        0.9999943      -0.4085749        0.9999943      -0.4085749     0.0009960411       -179.0435
0.02                0.0009967389       -3.546215        0.9999942        -0.81715        0.9999941      -0.8171501      0.000996739       -178.0881
0.03                0.0009979015       -5.316602        0.9999942       -1.225725        0.9999942       -1.225725     0.0009979014       -177.1348
0.04                 0.000999527       -7.083741        0.9999941         -1.6343        0.9999941         -1.6343     0.0009995268       -176.1849
0.05                 0.001001614       -8.846573         0.999994       -2.042875        0.9999939       -2.042875      0.001001614       -175.2392
0.06                  0.00100416       -10.60406        0.9999938       -2.451451        0.9999937       -2.451451      0.001004159       -174.2988
0.07                 0.001007161       -12.35521        0.9999938       -2.860026        0.9999937       -2.860026      0.001007161       -173.3648
0.08                 0.001010616       -14.09903        0.9999936       -3.268601        0.9999936       -3.268601      0.001010616       -172.4382
0.09                  0.00101452       -15.83459        0.9999935       -3.677177        0.9999935       -3.677177       0.00101452       -171.5198
0.1                  0.001018868       -17.56098        0.9999933       -4.085753        0.9999932       -4.085753      0.001018868       -170.6105
0.11                 0.001023657       -19.27736         0.999993       -4.494329        0.9999929        -4.49433      0.001023657       -169.7113
0.12                 0.001028881        -20.9829        0.9999929       -4.902905        0.9999929       -4.902905      0.001028881       -168.8229
0.13                 0.001034536       -22.67685        0.9999927       -5.311481        0.9999927       -5.311481      0.001034536       -167.9461
0.14                 0.001040614        -24.3585        0.9999925       -5.720058        0.9999925       -5.720058      0.001040614       -167.0816
0.15                 0.001047112       -26.02718        0.9999922       -6.128634        0.9999922       -6.128634      0.001047112       -166.2301
0.16                 0.001054022       -27.68229        0.9999919       -6.537212        0.9999918       -6.537212      0.001054022       -165.3921
0.17                 0.001061338       -29.32326        0.9999916        -6.94579        0.9999916        -6.94579      0.001061338       -164.5683
0.18                 0.001069053       -30.94962        0.9999912       -7.354367        0.9999912       -7.354368      0.001069053       -163.7591
0.19                 0.001077162       -32.56088        0.9999909       -7.762945        0.9999908       -7.762946      0.001077162        -162.965
0.2                  0.001085657       -34.15667        0.9999906       -8.171523        0.9999905       -8.171523      0.001085657       -162.1864
0.21                 0.001094531       -35.73663        0.9999901       -8.580102        0.9999901       -8.580102      0.001094531       -161.4236
0.22                 0.001103777       -37.30046        0.9999898       -8.988682        0.9999897       -8.988683      0.001103777       -160.6769
0.23                 0.001113389       -38.84792        0.9999893       -9.397261        0.9999892       -9.397262      0.001113389       -159.9466
0.24                 0.001123359       -40.37879         0.999989        -9.80584         0.999989        -9.80584      0.001123359       -159.2329
0.25                  0.00113368       -41.89292        0.9999885       -10.21442        0.9999885       -10.21442       0.00113368       -158.5359
0.26                 0.001144345       -43.39018         0.999988         -10.623        0.9999879         -10.623      0.001144345       -157.8558
0.27                 0.001155348       -44.87049        0.9999875       -11.03158        0.9999875       -11.03158      0.001155348       -157.1927
0.28                 0.001166681       -46.33381         0.999987       -11.44017        0.9999869       -11.44017      0.001166681       -156.5465
0.29                 0.001178337       -47.78012        0.9999865       -11.84875        0.9999864       -11.84875      0.001178337       -155.9174
0.3                   0.00119031       -49.20945        0.9999859       -12.25733        0.9999858       -12.25733       0.00119031       -155.3052
0.31                 0.001202593       -50.62184        0.9999853       -12.66591        0.9999853       -12.66591      0.001202593         -154.71
0.32                  0.00121518       -52.01736        0.9999848        -13.0745        0.9999848       -13.07449       0.00121518       -154.1316
0.33                 0.001228063       -53.39613        0.9999841       -13.48308        0.9999841       -13.48308      0.001228063         -153.57
0.34                 0.001241238       -54.75828        0.9999836       -13.89167        0.9999836       -13.89167      0.001241238        -153.025
0.35                 0.001254698       -56.10392         0.999983       -14.30025         0.999983       -14.30025      0.001254698       -152.4966
0.36                 0.001268436       -57.43324        0.9999822       -14.70884        0.9999822       -14.70884      0.001268436       -151.9844
0.37                 0.001282448       -58.74641        0.9999817       -15.11742        0.9999817       -15.11742      0.001282448       -151.4884
0.38                 0.001296727       -60.04362        0.9999809       -15.52601        0.9999808       -15.52601      0.001296727       -151.0084
0.39                 0.001311268       -61.32508        0.9999802        -15.9346        0.9999801        -15.9346      0.001311267       -150.5441
0.4                  0.001326065       -62.59101        0.9999795       -16.34319        0.9999794       -16.34319      0.001326065       -150.0954
0.41                 0.001341114       -63.84163        0.9999787       -16.75178        0.9999786       -16.75178      0.001341114       -149.6619
0.42                 0.001356408       -65.07717         0.999978       -17.16037        0.9999779       -17.16037      0.001356408       -149.2436
0.43                 0.001371945       -66.29787        0.9999772       -17.56896        0.9999771       -17.56896      0.001371945       -148.8401
0.44                 0.001387718         -67.504        0.9999763       -17.97755        0.9999763       -17.97755      0.001387718       -148.4511
0.45                 0.001403724       -68.69578        0.9999756       -18.38614        0.9999756       -18.38614      0.001403724       -148.0765
0.46                 0.001419957       -69.87347        0.9999748       -18.79474        0.9999748       -18.79474      0.001419957        -147.716
0.47                 0.001436414       -71.03734        0.9999738       -19.20333        0.9999738       -19.20333      0.001436414       -147.3693
0.48                 0.001453091       -72.18762         0.999973       -19.61193        0.9999729       -19.61193      0.001453091       -147.0362
0.49                 0.001469983       -73.32459        0.9999721       -20.02052        0.9999721       -20.02052      0.001469983       -146.7165
0.5                  0.001487087        -74.4485        0.9999712       -20.42912        0.9999712       -20.42912      0.001487087       -146.4097
0.51                   0.0015044       -75.55959        0.9999702       -20.83772        0.9999702       -20.83772        0.0015044       -146.1158
0.52                 0.001521917       -76.65815        0.9999693       -21.24632        0.9999693       -21.24632      0.001521917       -145.8345
0.53                 0.001539635       -77.74442        0.9999683       -21.65492        0.9999683       -21.65491      0.001539635       -145.5654
0.54                 0.001557551       -78.81862        0.9999673       -22.06351        0.9999672       -22.06352      0.001557551       -145.3084
0.55                 0.001575663       -79.88101        0.9999663       -22.47212        0.9999663       -22.47212      0.001575663       -145.0632
0.56                 0.001593966       -80.93188        0.9999653       -22.88072        0.9999653       -22.88072      0.001593966       -144.8296
0.57                 0.001612459       -81.97143        0.9999643       -23.28932        0.9999642       -23.28932      0.001612459       -144.6072
0.58                 0.001631137       -82.99989        0.9999632       -23.69793        0.9999631       -23.69793      0.001631138        -144.396
0.59                     0.00165       -84.01751        0.9999621       -24.10653        0.9999621       -24.10653          0.00165       -144.1955
0.6                  0.001669044       -85.02451         0.999961       -24.51514         0.999961       -24.51514      0.001669044       -144.0058
0.61                 0.001688266       -86.02113        0.9999599       -24.92375        0.9999598       -24.92375      0.001688266       -143.8264
0.62                 0.001707665       -87.00759        0.9999587       -25.33236        0.9999587       -25.33236      0.001707665       -143.6571
0.63                 0.001727238        -87.9841        0.9999576       -25.74097        0.9999576       -25.74097      0.001727237       -143.4978
0.64                 0.001746982       -88.95087        0.9999565       -26.14958        0.9999565       -26.14958      0.001746982       -143.3483
0.65                 0.001766897       -89.90811        0.9999552       -26.55819        0.9999552       -26.55819      0.001766897       -143.2083
0.66                 0.001786979       -90.85603        0.9999541        -26.9668        0.9999541        -26.9668      0.001786979       -143.0776
0.67                 0.001807228       -91.79481        0.9999528       -27.37542        0.9999528       -27.37542      0.001807228        -142.956
0.68                 0.001827641       -92.72466        0.9999516       -27.78403        0.9999516       -27.78403      0.001827641       -142.8434
0.69                 0.001848216       -93.64578        0.9999503       -28.19265        0.9999502       -28.19265      0.001848216       -142.7395
0.7                  0.001868951       -94.55835         0.999949       -28.60127         0.999949       -28.60127      0.001868951       -142.6442
0.71                 0.001889846       -95.46252        0.9999478       -29.00988        0.9999477       -29.00988      0.001889846       -142.5573
0.72                 0.001910898        -96.3585        0.9999465       -29.41851        0.9999465       -29.41851      0.001910898       -142.4785
0.73                 0.001932106       -97.24644        0.9999451       -29.82713        0.9999451       -29.82713      0.001932106       -142.4078
0.74                 0.001953469       -98.12654        0.9999438       -30.23575        0.9999438       -30.23575      0.001953469        -142.345
0.75                 0.001974985       -98.99893        0.9999424       -30.64437        0.9999424       -30.64437      0.001974984       -142.2898
0.76                 0.001996652       -99.86378        0.9999409         -31.053        0.9999409         -31.053      0.001996652       -142.2422
0.77                  0.00201847       -100.7213        0.9999395       -31.46163        0.9999394       -31.46163      0.002018471        -142.202
0.78                 0.002040438       -101.5715        0.9999381       -31.87025         0.999938       -31.87025      0.002040438        -142.169
0.79                 0.002062553       -102.4147        0.9999367       -32.27888        0.9999367       -32.27888      0.002062553       -142.1431
0.8                  0.002084816       -103.2509        0.9999352       -32.68752        0.9999352       -32.68752      0.002084816       -142.1242
0.81                 0.002107224       -104.0803        0.9999337       -33.09615        0.9999337       -33.09615      0.002107224        -142.112
0.82                 0.002129777        -104.903        0.9999322       -33.50479        0.9999322       -33.50479      0.002129777       -142.1066
0.83                 0.002152473       -105.7192        0.9999307       -33.91342        0.9999307       -33.91342      0.002152474       -142.1076
0.84                 0.002175313        -106.529        0.9999292       -34.32206        0.9999293       -34.32206      0.002175313       -142.1151
0.85                 0.002198293       -107.3326        0.9999276        -34.7307        0.9999275        -34.7307      0.002198293       -142.1288
0.86                 0.002221415       -108.1299         0.999926       -35.13933         0.999926       -35.13934      0.002221415       -142.1487
0.87                 0.002244677       -108.9213        0.9999246       -35.54797        0.9999246       -35.54797      0.002244677       -142.1747
0.88                 0.002268077       -109.7067        0.9999229       -35.95662        0.9999228       -35.95662      0.002268077       -142.2066
0.89                 0.002291615       -110.4863        0.9999212       -36.36527        0.9999211       -36.36527      0.002291616       -142.2442
0.9                  0.002315291       -111.2602        0.9999196       -36.77391        0.9999196       -36.77391      0.002315291       -142.2877
0.91                 0.002339103       -112.0285        0.9999179       -37.18256        0.9999179       -37.18256      0.002339103       -142.3366
0.92                 0.002363051       -112.7913        0.9999162       -37.59121        0.9999163       -37.59121      0.002363051       -142.3911
0.93                 0.002387134       -113.5488        0.9999146       -37.99986        0.9999146       -37.99986      0.002387134        -142.451
0.94                 0.002411351       -114.3009        0.9999128       -38.40851        0.9999128       -38.40851      0.002411351       -142.5161
0.95                 0.002435701       -115.0479        0.9999111       -38.81716        0.9999111       -38.81716      0.002435701       -142.5864
0.96                 0.002460184       -115.7897        0.9999094       -39.22582        0.9999093       -39.22582      0.002460184       -142.6619
0.97                 0.002484799       -116.5266        0.9999076       -39.63448        0.9999076       -39.63447      0.002484799       -142.7424
0.98                 0.002509544       -117.2585        0.9999058       -40.04314        0.9999058       -40.04314      0.002509544       -142.8278
0.99                  0.00253442       -117.9856         0.999904        -40.4518         0.999904        -40.4518      0.002534421        -142.918
1                    0.002559427        -118.708        0.9999021       -40.86046        0.9999021       -40.86047      0.002559426        -143.013
1.01                 0.002584562       -119.4256        0.9999002       -41.26913        0.9999002       -41.26913      0.002584562       -143.1126
1.02                 0.002609826       -120.1387        0.9998984        -41.6778        0.9998984        -41.6778      0.002609826       -143.2169
1.03                 0.002635217       -120.8473        0.9998966       -42.08646        0.9998966       -42.08646      0.002635217       -143.3256
1.04                 0.002660736       -121.5515        0.9998946       -42.49513        0.9998946       -42.49514      0.002660736       -143.4388
1.05                 0.002686382       -122.2513        0.9998927       -42.90381        0.9998926       -42.90381      0.002686382       -143.5564
1.06                 0.002712153       -122.9468        0.9998908       -43.31248        0.9998908       -43.31248      0.002712153       -143.6781
1.07                  0.00273805       -123.6381        0.9998888       -43.72116        0.9998888       -43.72116       0.00273805       -143.8042
1.08                 0.002764071       -124.3252        0.9998869       -44.12983        0.9998869       -44.12983      0.002764071       -143.9344
1.09                 0.002790217       -125.0083        0.9998849       -44.53851        0.9998849       -44.53851      0.002790217       -144.0687
1.1                  0.002816486       -125.6874        0.9998828        -44.9472        0.9998828        -44.9472      0.002816487        -144.207
1.11                 0.002842879       -126.3625        0.9998809       -45.35588        0.9998809       -45.35588      0.002842878       -144.3493
1.12                 0.002869393       -127.0337        0.9998788       -45.76457        0.9998787       -45.76457      0.002869393       -144.4954
1.13                 0.002896029       -127.7011        0.9998767       -46.17325        0.9998767       -46.17325      0.002896029       -144.6453
1.14                 0.002922786       -128.3648        0.9998746       -46.58195        0.9998746       -46.58195      0.002922786       -144.7991
1.15                 0.002949663       -129.0247        0.9998725       -46.99064        0.9998725       -46.99064      0.002949664       -144.9566
1.16                 0.002976661        -129.681        0.9998703       -47.39933        0.9998703       -47.39933      0.002976661       -145.1177
1.17                 0.003003777       -130.3336        0.9998682       -47.80802        0.9998682       -47.80803      0.003003777       -145.2824
1.18                 0.003031013       -130.9828        0.9998661       -48.21672        0.9998661       -48.21672      0.003031013       -145.4507
1.19                 0.003058367       -131.6284         0.999864       -48.62542         0.999864       -48.62542      0.003058366       -145.6224
1.2                  0.003085837       -132.2706        0.9998617       -49.03412        0.9998616       -49.03412      0.003085837       -145.7976
1.21                 0.003113425       -132.9094        0.9998595       -49.44283        0.9998594       -49.44283      0.003113425       -145.9762
1.22                 0.003141129       -133.5449        0.9998573       -49.85154        0.9998573       -49.85154      0.003141129       -146.1582
1.23                 0.003168949       -134.1771        0.9998551       -50.26024        0.9998551       -50.26024      0.003168949       -146.3434
1.24                 0.003196883        -134.806        0.9998529       -50.66895        0.9998529       -50.66894      0.003196883       -146.5319
1.25                 0.003224932       -135.4318        0.9998505       -51.07767        0.9998505       -51.07767      0.003224932       -146.7236
1.26                 0.003253095       -136.0544        0.9998483       -51.48638        0.9998483       -51.48638      0.003253095       -146.9184
1.27                 0.003281371       -136.6738        0.9998459        -51.8951        0.9998459        -51.8951      0.003281371       -147.1163
1.28                  0.00330976       -137.2903        0.9998436       -52.30382        0.9998436       -52.30382       0.00330976       -147.3174
1.29                  0.00333826       -137.9037        0.9998412       -52.71254        0.9998412       -52.71254       0.00333826       -147.5214
1.3                  0.003366872       -138.5141        0.9998389       -53.12126        0.9998389       -53.12126      0.003366871       -147.7284
1.31                 0.003395594       -139.1215        0.9998364          -53.53        0.9998363          -53.53      0.003395594       -147.9385
1.32                 0.003424426       -139.7261         0.999834       -53.93872         0.999834       -53.93872      0.003424426       -148.1513
1.33                 0.003453367       -140.3278        0.9998315       -54.34745        0.9998315       -54.34745      0.003453367       -148.3671
1.34                 0.003482417       -140.9267        0.9998291       -54.75619        0.9998291       -54.75619      0.003482417       -148.5857
1.35                 0.003511575       -141.5228        0.9998266       -55.16493        0.9998266       -55.16493      0.003511575        -148.807
1.36                  0.00354084       -142.1161        0.9998242       -55.57366        0.9998241       -55.57366       0.00354084       -149.0312
1.37                 0.003570211       -142.7068        0.9998218        -55.9824        0.9998218        -55.9824      0.003570212        -149.258
1.38                  0.00359969       -143.2948        0.9998193       -56.39114        0.9998193       -56.39114       0.00359969       -149.4875
1.39                 0.003629273       -143.8801        0.9998167       -56.79989        0.9998167       -56.79989      0.003629273       -149.7197
1.4                   0.00365896       -144.4627        0.9998142       -57.20864        0.9998142       -57.20864       0.00365896       -149.9545
1.41                 0.003688751       -145.0429        0.9998116       -57.61739        0.9998116       -57.61739      0.003688751       -150.1919
1.42                 0.003718645       -145.6205        0.9998089       -58.02615        0.9998089       -58.02615      0.003718645       -150.4318
1.43                 0.003748642       -146.1955        0.9998064        -58.4349        0.9998064        -58.4349      0.003748642       -150.6743
1.44                  0.00377874       -146.7681        0.9998036       -58.84367        0.9998036       -58.84367       0.00377874       -150.9192
1.45                  0.00380894       -147.3382        0.9998011       -59.25242        0.9998011       -59.25242      0.003808939       -151.1666
1.46                 0.003839239        -147.906        0.9997984       -59.66119        0.9997983       -59.66119      0.003839239       -151.4164
1.47                 0.003869637       -148.4713        0.9997956       -60.06996        0.9997955       -60.06996      0.003869637       -151.6687
1.48                 0.003900135       -149.0342         0.999793       -60.47872         0.999793       -60.47872      0.003900135       -151.9232
1.49                 0.003930731       -149.5948        0.9997903        -60.8875        0.9997903        -60.8875      0.003930731       -152.1802
1.5                  0.003961423       -150.1531        0.9997876       -61.29627        0.9997876       -61.29627      0.003961423       -152.4394
1.51                 0.003992212       -150.7092        0.9997849       -61.70504        0.9997849       -61.70504      0.003992212       -152.7009
1.52                 0.004023097        -151.263         0.999782       -62.11383         0.999782       -62.11383      0.004023097       -152.9647
1.53                 0.004054076       -151.8145        0.9997793        -62.5226        0.9997793        -62.5226      0.004054075       -153.2307
1.54                 0.004085148       -152.3639        0.9997765       -62.93139        0.9997765       -62.93139      0.004085148       -153.4989
1.55                 0.004116315        -152.911        0.9997737       -63.34018        0.9997737       -63.34018      0.004116315       -153.7693
1.56                 0.004147574       -153.4561        0.9997708       -63.74898        0.9997708       -63.74898      0.004147574       -154.0419
1.57                 0.004178924        -153.999        0.9997679       -64.15778        0.9997678       -64.15778      0.004178924       -154.3166
1.58                 0.004210365       -154.5398        0.9997651       -64.56655        0.9997651       -64.56655      0.004210365       -154.5933
1.59                 0.004241896       -155.0785        0.9997622       -64.97536        0.9997623       -64.97535      0.004241896       -154.8722
1.6                  0.004273515       -155.6152        0.9997593       -65.38417        0.9997592       -65.38418      0.004273516       -155.1531
1.61                 0.004305223       -156.1499        0.9997563       -65.79297        0.9997563       -65.79297      0.004305224       -155.4361
1.62                 0.004337018       -156.6825        0.9997534       -66.20178        0.9997534       -66.20178      0.004337018       -155.7211
1.63                   0.0043689       -157.2132        0.9997504       -66.61058        0.9997504       -66.61058      0.004368899        -156.008
1.64                 0.004400868       -157.7419        0.9997474       -67.01941        0.9997473       -67.01941      0.004400868       -156.2969
1.65                 0.004432918       -158.2686        0.9997445       -67.42821        0.9997445       -67.42821      0.004432919       -156.5878
1.66                 0.004465054       -158.7935        0.9997414       -67.83704        0.9997414       -67.83704      0.004465054       -156.8806
1.67                 0.004497272       -159.3164        0.9997384       -68.24586        0.9997384       -68.24587      0.004497272       -157.1753
1.68                 0.004529572       -159.8375        0.9997353       -68.65469        0.9997353       -68.65469      0.004529572       -157.4719
1.69                 0.004561953       -160.3567        0.9997323       -69.06352        0.9997323       -69.06352      0.004561954       -157.7703
1.7                  0.004594414       -160.8741        0.9997292       -69.47235        0.9997292       -69.47235      0.004594414       -158.0706
1.71                 0.004626955       -161.3897         0.999726       -69.88118         0.999726       -69.88118      0.004626955       -158.3727
1.72                 0.004659574       -161.9034         0.999723       -70.29001         0.999723       -70.29001      0.004659574       -158.6766
1.73                 0.004692269       -162.4154        0.9997198       -70.69886        0.9997198       -70.69886      0.004692269       -158.9823
1.74                 0.004725041       -162.9256        0.9997167       -71.10769        0.9997167       -71.10769      0.004725041       -159.2898
1.75                 0.004757888       -163.4341        0.9997135       -71.51654        0.9997135       -71.51654      0.004757889        -159.599
1.76                  0.00479081       -163.9409        0.9997104       -71.92537        0.9997104       -71.92537       0.00479081       -159.9099
1.77                 0.004823805       -164.4459        0.9997071       -72.33425        0.9997071       -72.33425      0.004823805       -160.2226
1.78                 0.004856872       -164.9493        0.9997039       -72.74311        0.9997039       -72.74311      0.004856872       -160.5369
1.79                  0.00489001        -165.451        0.9997006       -73.15196        0.9997006       -73.15196      0.004890011       -160.8529
1.8                  0.004923219       -165.9511        0.9996974       -73.56082        0.9996975       -73.56082      0.004923219       -161.1706
1.81                 0.004956497       -166.4495        0.9996941        -73.9697        0.9996941        -73.9697      0.004956498       -161.4899
1.82                 0.004989844       -166.9463        0.9996908       -74.37856        0.9996908       -74.37856      0.004989844       -161.8108
1.83                 0.005023258       -167.4415        0.9996874       -74.78744        0.9996874       -74.78744      0.005023257       -162.1334
1.84                 0.005056738       -167.9351        0.9996841       -75.19632        0.9996841       -75.19632      0.005056738       -162.4576
1.85                 0.005090283       -168.4271        0.9996807       -75.60517        0.9996807       -75.60518      0.005090283       -162.7832
1.86                 0.005123892       -168.9176        0.9996773       -76.01406        0.9996773       -76.01406      0.005123892       -163.1105
1.87                 0.005157564       -169.4066        0.9996739       -76.42297        0.9996739       -76.42297      0.005157565       -163.4394
1.88                 0.005191298        -169.894        0.9996706       -76.83185        0.9996705       -76.83185      0.005191298       -163.7697
1.89                 0.005225094         -170.38        0.9996671       -77.24076        0.9996671       -77.24076      0.005225094       -164.1016
1.9                  0.005258949       -170.8644        0.9996637       -77.64962        0.9996637       -77.64962      0.005258949       -164.4348
1.91                 0.005292862       -171.3473        0.9996602       -78.05852        0.9996602       -78.05852      0.005292862       -164.7697
1.92                 0.005326833       -171.8289        0.9996566       -78.46743        0.9996566       -78.46744      0.005326833        -165.106
1.93                 0.005360861       -172.3089        0.9996532       -78.87634        0.9996531       -78.87634      0.005360861       -165.4438
1.94                 0.005394944       -172.7875        0.9996497       -79.28525        0.9996496       -79.28525      0.005394944        -165.783
1.95                 0.005429081       -173.2647        0.9996462       -79.69416        0.9996462       -79.69416      0.005429081       -166.1236
1.96                 0.005463271       -173.7405        0.9996426       -80.10307        0.9996426       -80.10307      0.005463272       -166.4656
1.97                 0.005497514       -174.2149        0.9996391       -80.51201        0.9996391       -80.51201      0.005497514       -166.8091
1.98                 0.005531807        -174.688        0.9996355       -80.92092        0.9996355       -80.92092      0.005531808       -167.1539