! TOUCHSTONE file generated by CST MICROWAVE STUDIO
! Date and time: Tue Feb 18 19:56:00 2025
! Project name: MSLineZL_resistive.cst
! Parameters = {ZL=30; C=0; L=100; Lamb=0.05; Li=0; R=1e-13; W=20; Zp2=50; dlump=2; er=2; h=0.8; w1=2.62}
! Header version: 2024
! Port assignment regex: !\s*Touchstone port\s*([0-9]+)\s*=\s*(CST MWS port|CST DES external port|CST DES block port)\s*(.+)\s* \(\"(.*)\"\)(\s*mode\s*([0-9]+))?.*
! Touchstone port assignment:
! Touchstone port 1 = CST MWS port 1 ("")
# GHz S MA R 50
0                      0.2503422             180
0.01                   0.2503343        176.8686
0.02                   0.2503108        173.7371
0.03                   0.2502715        170.6051
0.04                   0.2502167        167.4726
0.05                   0.2501465        164.3394
0.06                   0.2500612        161.2052
0.07                   0.2499609        158.0698
0.08                   0.2498459        154.9332
0.09                   0.2497166        151.7951
0.1                    0.2495733        148.6554
0.11                   0.2494164        145.5138
0.12                   0.2492465        142.3702
0.13                   0.2490638        139.2245
0.14                   0.2488691        136.0765
0.15                   0.2486628         132.926
0.16                   0.2484456         129.773
0.17                    0.248218        126.6172
0.18                   0.2479807        123.4585
0.19                   0.2477344        120.2968
0.2                    0.2474799         117.132
0.21                   0.2472178         113.964
0.22                   0.2469489        110.7927
0.23                   0.2466741         107.618
0.24                    0.246394        104.4397
0.25                   0.2461096         101.258
0.26                   0.2458217        98.07257
0.27                   0.2455311        94.88349
0.28                   0.2452386        91.69068
0.29                   0.2449453        88.49413
0.3                    0.2446519        85.29383
0.31                   0.2443593        82.08973
0.32                   0.2440685        78.88185
0.33                   0.2437802        75.67023
0.34                   0.2434954        72.45485
0.35                    0.243215        69.23578
0.36                   0.2429397        66.01308
0.37                   0.2426705        62.78677
0.38                   0.2424081        59.55696
0.39                   0.2421534        56.32372
0.4                    0.2419071        53.08715
0.41                   0.2416701        49.84734
0.42                    0.241443        46.60444
0.43                   0.2412266        43.35856
0.44                   0.2410215        40.10983
0.45                   0.2408284        36.85841
0.46                   0.2406479        33.60447
0.47                   0.2404806        30.34816
0.48                    0.240327        27.08967
0.49                   0.2401875        23.82918
0.5                    0.2400626        20.56688
0.51                   0.2399528        17.30296
0.52                   0.2398583        14.03764
0.53                   0.2397794        10.77112
0.54                   0.2397165        7.503624
0.55                   0.2396696        4.235357
0.56                    0.239639        0.966543
0.57                   0.2396247       -2.302594
0.58                   0.2396269       -5.571832
0.59                   0.2396453       -8.840949
0.6                    0.2396801       -12.10972
0.61                   0.2397311       -15.37792
0.62                   0.2397981       -18.64534
0.63                   0.2398809       -21.91176
0.64                   0.2399792       -25.17697
0.65                   0.2400928       -28.44076
0.66                   0.2402212       -31.70293
0.67                   0.2403641       -34.96327
0.68                    0.240521       -38.22162
0.69                   0.2406914       -41.47778
0.7                    0.2408747       -44.73159
0.71                   0.2410704       -47.98288
0.72                   0.2412778       -51.23148
0.73                   0.2414964       -54.47727
0.74                   0.2417254       -57.72011
0.75                    0.241964       -60.95988
0.76                   0.2422117       -64.19644
0.77                   0.2424676       -67.42971
0.78                   0.2427308       -70.65961
0.79                   0.2430007       -73.88604
0.8                    0.2432763       -77.10894
0.81                   0.2435569       -80.32825
0.82                   0.2438416       -83.54393
0.83                   0.2441295       -86.75595
0.84                   0.2444197        -89.9643
0.85                   0.2447115       -93.16894
0.86                   0.2450038       -96.36991
0.87                   0.2452959       -99.56717
0.88                   0.2455869       -102.7608
0.89                   0.2458759       -105.9508
0.9                    0.2461621       -109.1372
0.91                   0.2464447       -112.3202
0.92                   0.2467228       -115.4996
0.93                   0.2469956       -118.6757
0.94                   0.2472624       -121.8485
0.95                   0.2475223       -125.0181
0.96                   0.2477747       -128.1846
0.97                   0.2480189       -131.3481
0.98                   0.2482541       -134.5088
0.99                   0.2484796       -137.6667
1                      0.2486949        -140.822
1.01                   0.2488994       -143.9748
1.02                   0.2490924       -147.1253
1.03                   0.2492736       -150.2736
1.04                   0.2494423       -153.4199
1.05                   0.2495981       -156.5643
1.06                   0.2497406        -159.707
1.07                   0.2498695       -162.8482
1.08                   0.2499843        -165.988
1.09                   0.2500848       -169.1267
1.1                    0.2501708       -172.2643
1.11                   0.2502419       -175.4011
1.12                   0.2502982       -178.5372
1.13                   0.2503393        178.3271
1.14                   0.2503653        175.1916
1.15                   0.2503761        172.0563
1.16                   0.2503716         168.921
1.17                    0.250352        165.7853
1.18                   0.2503174        162.6492
1.19                   0.2502678        159.5125
1.2                    0.2502034        156.3749
1.21                   0.2501244        153.2364
1.22                   0.2500312        150.0966
1.23                    0.249924        146.9556
1.24                    0.249803         143.813
1.25                   0.2496689        140.6688
1.26                   0.2495218        137.5227
1.27                   0.2493623        134.3747
1.28                   0.2491908        131.2245
1.29                    0.249008         128.072
1.3                    0.2488143        124.9171
1.31                   0.2486102        121.7596
1.32                   0.2483966        118.5995
1.33                    0.248174        115.4365
1.34                    0.247943        112.2706
1.35                   0.2477044        109.1017
1.36                   0.2474588        105.9296
1.37                   0.2472071        102.7543
1.38                   0.2469501         99.5757
1.39                   0.2466883        96.39375
1.4                    0.2464228        93.20835
1.41                   0.2461542        90.01947
1.42                   0.2458835        86.82707
1.43                   0.2456114         83.6311
1.44                   0.2453388        80.43155
1.45                   0.2450665        77.22841
1.46                   0.2447953        74.02167
1.47                   0.2445261        70.81134
1.48                   0.2442598        67.59746
1.49                    0.243997        64.38006
1.5                    0.2437388        61.15916
1.51                   0.2434858        57.93483
1.52                   0.2432389        54.70714
1.53                   0.2429987        51.47615
1.54                   0.2427662        48.24198
1.55                    0.242542        45.00469
1.56                   0.2423268        41.76441
1.57                   0.2421212        38.52126
1.58                   0.2419261        35.27535
1.59                   0.2417418        32.02685
1.6                    0.2415692        28.77587
1.61                   0.2414085        25.52259
1.62                   0.2412605        22.26717
1.63                   0.2411255        19.00978
1.64                    0.241004        15.75058
1.65                   0.2408964        12.48977
1.66                   0.2408029        9.227546
1.67                    0.240724         5.96409
1.68                   0.2406598        2.699603
1.69                   0.2406105       -0.565712
1.7                    0.2405764       -3.831651
1.71                   0.2405574       -7.098008
1.72                   0.2405537       -10.36457
1.73                   0.2405652       -13.63114
1.74                    0.240592       -16.89751
1.75                   0.2406338       -20.16346
1.76                   0.2406906        -23.4288
1.77                   0.2407622       -26.69331
1.78                   0.2408484       -29.95682
1.79                   0.2409487       -33.21912
1.8                    0.2410631       -36.48002
1.81                    0.241191       -39.73934
1.82                    0.241332       -42.99691
1.83                   0.2414857       -46.25255
1.84                   0.2416516       -49.50611
1.85                   0.2418291       -52.75742
1.86                   0.2420178       -56.00635
1.87                    0.242217       -59.25275
1.88                    0.242426       -62.49652
1.89                   0.2426443       -65.73749
1.9                     0.242871        -68.9756
1.91                   0.2431056       -72.21074
1.92                   0.2433473       -75.44284
1.93                   0.2435952       -78.67177
1.94                   0.2438488       -81.89753
1.95                   0.2441072       -85.11998
1.96                   0.2443696       -88.33919
1.97                   0.2446352       -91.55503
1.98                   0.2449032       -94.76754
1.99                   0.2451728       -97.97667
2                      0.2454433       -101.1825
2.01                   0.2457137       -104.3849
2.02                   0.2459833        -107.584
2.03                   0.2462513       -110.7797
2.04                   0.2465169       -113.9723
2.05                   0.2467794       -117.1616
2.06                   0.2470379       -120.3477
2.07                   0.2472918       -123.5308
2.08                   0.2475402       -126.7108
2.09                   0.2477826       -129.8879
2.1                    0.2480182       -133.0622
2.11                   0.2482463       -136.2338
2.12                   0.2484664       -139.4027
2.13                   0.2486777       -142.5691
2.14                   0.2488797       -145.7332
2.15                    0.249072       -148.8949
2.16                   0.2492539       -152.0546
2.17                   0.2494249       -155.2122
2.18                   0.2495846        -158.368
2.19                   0.2497326       -161.5222
2.2                    0.2498686       -164.6747
2.21                    0.249992       -167.8259
2.22                   0.2501027       -170.9758
2.23                   0.2502004       -174.1247
2.24                   0.2502848       -177.2726
2.25                   0.2503558        179.5802
2.26                   0.2504131        176.4335
2.27                   0.2504567        173.2873
2.28                   0.2504866        170.1413
2.29                   0.2505026        166.9954
2.3                    0.2505047        163.8494
2.31                   0.2504931        160.7031
2.32                   0.2504678        157.5564
2.33                   0.2504289        154.4091
2.34                   0.2503766         151.261
2.35                   0.2503112         148.112
2.36                   0.2502327        144.9619
2.37                   0.2501416        141.8106
2.38                    0.250038        138.6579
2.39                   0.2499226        135.5036
2.4                    0.2497954        132.3476
2.41                   0.2496571        129.1898
2.42                    0.249508          126.03
2.43                   0.2493486        122.8681
2.44                   0.2491795         119.704
2.45                   0.2490012        116.5376
2.46                   0.2488142        113.3686
2.47                   0.2486191        110.1971
2.48                   0.2484167         107.023
2.49                   0.2482075         103.846
2.5                    0.2479921        100.6663
2.51                   0.2477713        97.48358
2.52                   0.2475457        94.29787
2.53                   0.2473162        91.10913
2.54                   0.2470833        87.91729
2.55                   0.2468479        84.72229
2.56                   0.2466106        81.52411
2.57                   0.2463723        78.32273
2.58                   0.2461336        75.11813
2.59                   0.2458954         71.9103
2.6                    0.2456583        68.69925
2.61                   0.2454232        65.48501
2.62                   0.2451908        62.26758
2.63                   0.2449618        59.04701
2.64                   0.2447369        55.82333
2.65                   0.2445169        52.59661
2.66                   0.2443025        49.36691
2.67                   0.2440943         46.1343
2.68                    0.243893        42.89887
2.69                   0.2436992         39.6607
2.7                    0.2435136        36.41991
2.71                   0.2433368        33.17659
2.72                   0.2431692        29.93088
2.73                   0.2430116        26.68288
2.74                   0.2428642        23.43275
2.75                   0.2427277        20.18061
2.76                   0.2426024        16.92663
2.77                   0.2424888        13.67094
2.78                   0.2423871        10.41372
2.79                   0.2422978        7.155122
2.8                    0.2422211         3.89532
2.81                   0.2421572       0.6344875
2.82                   0.2421063       -2.627201
2.83                   0.2420686       -5.889566
2.84                   0.2420442       -9.152428
2.85                   0.2420331        -12.4156
2.86                   0.2420355       -15.67891
2.87                   0.2420511       -18.94217
2.88                     0.24208        -22.2052
2.89                   0.2421221       -25.46782
2.9                    0.2421772       -28.72986
2.91                   0.2422452       -31.99112
2.92                   0.2423257       -35.25146
2.93                   0.2424186        -38.5107
2.94                   0.2425234       -41.76868
2.95                   0.2426399       -45.02524
2.96                   0.2427676       -48.28022
2.97                   0.2429062       -51.53351
2.98                   0.2430552       -54.78493
2.99                    0.243214       -58.03438
3                      0.2433822       -61.28172
3.01                   0.2435593       -64.52686
3.02                   0.2437446       -67.76967
3.03                   0.2439375       -71.01004
3.04                   0.2441375       -74.24793
3.05                   0.2443439       -77.48322
3.06                    0.244556       -80.71585
3.07                   0.2447732       -83.94577
3.08                   0.2449948       -87.17289
3.09                   0.2452202       -90.39724
3.1                    0.2454485       -93.61871
3.11                   0.2456791       -96.83734
3.12                   0.2459114       -100.0531
3.13                   0.2461445       -103.2659
3.14                   0.2463778       -106.4759
3.15                   0.2466105       -109.6831
3.16                    0.246842       -112.8874
3.17                   0.2470717       -116.0889
3.18                   0.2472987       -119.2876
3.19                   0.2475224       -122.4836
3.2                    0.2477423        -125.677
3.21                   0.2479575       -128.8677
3.22                   0.2481676        -132.056
3.23                   0.2483718       -135.2418
3.24                   0.2485698       -138.4253
3.25                   0.2487607       -141.6066
3.26                   0.2489442       -144.7856
3.27                   0.2491197       -147.9627
3.28                   0.2492867       -151.1378
3.29                   0.2494448        -154.311
3.3                    0.2495936       -157.4826
3.31                   0.2497326       -160.6526
3.32                   0.2498615       -163.8212
3.33                     0.24998       -166.9885
3.34                   0.2500876       -170.1546
3.35                   0.2501843       -173.3197
3.36                   0.2502698       -176.4838
3.37                   0.2503438       -179.6473
3.38                   0.2504062        177.1899
3.39                   0.2504569        174.0275
3.4                    0.2504957        170.8654
3.41                   0.2505227        167.7035
3.42                   0.2505377        164.5416
3.43                    0.250541        161.3796
3.44                   0.2505323        158.2172
3.45                   0.2505119        155.0545
3.46                   0.2504799        151.8911
3.47                   0.2504364        148.7271
3.48                   0.2503817        145.5621
3.49                   0.2503159        142.3962
3.5                    0.2502393        139.2291
3.51                   0.2501522        136.0608
3.52                    0.250055        132.8911
3.53                   0.2499479        129.7198
3.54                   0.2498314        126.5469
3.55                   0.2497058        123.3722
3.56                   0.2495716        120.1957
3.57                   0.2494293        117.0172
3.58                   0.2492793        113.8366
3.59                   0.2491222        110.6539
3.6                    0.2489585        107.4688
3.61                   0.2487886        104.2815
3.62                   0.2486133        101.0917
3.63                   0.2484331        97.89946
3.64                   0.2482485        94.70471
3.65                   0.2480603         91.5073
3.66                   0.2478689        88.30728
3.67                   0.2476751        85.10458
3.68                   0.2474795        81.89917
3.69                   0.2472827        78.69103
3.7                    0.2470854        75.48016
3.71                   0.2468882        72.26652
3.72                   0.2466918        69.05016
3.73                   0.2464968        65.83107
3.74                   0.2463038        62.60924
3.75                   0.2461135        59.38479
3.76                   0.2459266        56.15766
3.77                   0.2457435        52.92793
3.78                    0.245565        49.69568
3.79                   0.2453916        46.46095
3.8                    0.2452239        43.22381
3.81                   0.2450623        39.98434
3.82                   0.2449075        36.74264
3.83                     0.24476        33.49878
3.84                   0.2446202        30.25289
3.85                   0.2444885        27.00505
3.86                   0.2443655        23.75539
3.87                   0.2442514        20.50403
3.88                   0.2441467        17.25108
3.89                   0.2440517        13.99669
3.9                    0.2439667        10.74098
3.91                   0.2438919        7.484096
3.92                   0.2438276        4.226178
3.93                    0.243774       0.9673714
3.94                   0.2437313       -2.292175
3.95                   0.2436995       -5.552311
3.96                   0.2436788       -8.812886
3.97                   0.2436691       -12.07375
3.98                   0.2436706       -15.33474
3.99                   0.2436832       -18.59572
4                      0.2437068       -21.85652
4.01                   0.2437413       -25.11702
4.02                   0.2437866       -28.37703
4.03                   0.2438425       -31.63644
4.04                   0.2439088       -34.89509
4.05                   0.2439853       -38.15285
4.06                   0.2440716       -41.40958
4.07                   0.2441676       -44.66516
4.08                   0.2442728       -47.91945
4.09                   0.2443868       -51.17234
4.1                    0.2445094       -54.42372
4.11                     0.24464       -57.67347
4.12                   0.2447782        -60.9215
4.13                   0.2449236       -64.16772
4.14                   0.2450756       -67.41203
4.15                   0.2452338       -70.65436
4.16                   0.2453976       -73.89462
4.17                   0.2455665       -77.13279
4.18                   0.2457398       -80.36877
4.19                   0.2459171       -83.60253
4.2                    0.2460978       -86.83402
4.21                   0.2462813       -90.06323
4.22                    0.246467       -93.29011
4.23                   0.2466542       -96.51467
4.24                   0.2468424       -99.73688
4.25                    0.247031       -102.9568
4.26                   0.2472194       -106.1743
4.27                    0.247407       -109.3895
4.28                   0.2475932       -112.6025
4.29                   0.2477774       -115.8132
4.3                    0.2479591       -119.0216
4.31                   0.2481377       -122.2279
4.32                   0.2483127       -125.4321
4.33                   0.2484834       -128.6342
4.34                   0.2486495       -131.8343
4.35                   0.2488104       -135.0326
4.36                   0.2489656       -138.2289
4.37                   0.2491146       -141.4235
4.38                   0.2492572       -144.6165
4.39                   0.2493928       -147.8078
4.4                    0.2495209       -150.9977
4.41                   0.2496414       -154.1862
4.42                   0.2497538       -157.3735
4.43                   0.2498578       -160.5596
4.44                   0.2499532       -163.7446
4.45                   0.2500397       -166.9287
4.46                   0.2501171        -170.112
4.47                   0.2501851       -173.2946
4.48                   0.2502437       -176.4767
4.49                   0.2502926       -179.6583
4.5                    0.2503319        177.1605
4.51                   0.2503613        173.9794
4.52                    0.250381        170.7983
4.53                   0.2503908        167.6172
4.54                   0.2503908        164.4359
4.55                    0.250381        161.2544
4.56                   0.2503616        158.0723
4.57                   0.2503327        154.8897
4.58                   0.2502943        151.7064
4.59                   0.2502468        148.5224
4.6                    0.2501902        145.3374
4.61                   0.2501249        142.1513
4.62                    0.250051        138.9641
4.63                   0.2499689        135.7757
4.64                   0.2498789         132.586
4.65                   0.2497813        129.3947
4.66                   0.2496765        126.2019
4.67                   0.2495649        123.0075
4.68                   0.2494469        119.8114
4.69                   0.2493228        116.6134
4.7                    0.2491932        113.4136
4.71                   0.2490586        110.2118
4.72                   0.2489193        107.0081
4.73                   0.2487759        103.8022
4.74                   0.2486289        100.5942
4.75                   0.2484789         97.3841
4.76                   0.2483262        94.17176
4.77                   0.2481716        90.95719
4.78                   0.2480154        87.74037
4.79                   0.2478583        84.52126
4.8                    0.2477008        81.29989
4.81                   0.2475435        78.07623
4.82                   0.2473869        74.85028
4.83                   0.2472314        71.62207
4.84                   0.2470778        68.39162
4.85                   0.2469265        65.15896
4.86                    0.246778        61.92411
4.87                   0.2466329        58.68712
4.88                   0.2464917        55.44803
4.89                   0.2463547        52.20691
4.9                    0.2462226        48.96383
4.91                   0.2460957        45.71883
4.92                   0.2459746        42.47201
4.93                   0.2458595        39.22343
4.94                    0.245751        35.97321
4.95                   0.2456493        32.72141
4.96                   0.2455548        29.46815
4.97                   0.2454679        26.21352
4.98                   0.2453888        22.95763
4.99                   0.2453179         19.7006
5                      0.2452552        16.44253
5.01                   0.2452012        13.18355
5.02                   0.2451558        9.923785
5.03                   0.2451193        6.663345
5.04                   0.2450917        3.402363
5.05                   0.2450732       0.1409637
5.06                   0.2450638       -3.120725
5.07                   0.2450636       -6.382575
5.08                   0.2450725       -9.644459
5.09                   0.2450904       -12.90625
5.1                    0.2451172       -16.16783
5.11                    0.245153       -19.42905
5.12                   0.2451975       -22.68982
5.13                   0.2452506          -25.95
5.14                    0.245312       -29.20947
5.15                   0.2453815       -32.46813
5.16                   0.2454589       -35.72586
5.17                   0.2455439       -38.98257
5.18                   0.2456361       -42.23814
5.19                   0.2457353       -45.49248
5.2                    0.2458411       -48.74551
5.21                    0.245953       -51.99712
5.22                   0.2460708       -55.24725
5.23                   0.2461938       -58.49584
5.24                   0.2463219       -61.74279
5.25                   0.2464543       -64.98807
5.26                   0.2465909        -68.2316
5.27                   0.2467309       -71.47335
5.28                   0.2468739       -74.71329
5.29                   0.2470195       -77.95135
5.3                    0.2471672       -81.18754
5.31                   0.2473163       -84.42183
5.32                   0.2474664       -87.65419
5.33                   0.2476171       -90.88465
5.34                   0.2477677       -94.11319
5.35                   0.2479177       -97.33982
5.36                   0.2480668       -100.5646
5.37                   0.2482142       -103.7875
5.38                   0.2483595       -107.0085
5.39                   0.2485024       -110.2277
5.4                    0.2486422       -113.4452
5.41                   0.2487784        -116.661
5.42                   0.2489107       -119.8752
5.43                   0.2490387       -123.0877
5.44                   0.2491618       -126.2987
5.45                   0.2492798       -129.5083
5.46                    0.249392       -132.7165
5.47                   0.2494984       -135.9234
5.48                   0.2495984        -139.129
5.49                   0.2496918       -142.3336
5.5                    0.2497782       -145.5371
5.51                   0.2498574       -148.7397
5.52                   0.2499292       -151.9414
5.53                   0.2499933       -155.1425
5.54                   0.2500495       -158.3429
5.55                   0.2500977       -161.5427
5.56                   0.2501376       -164.7422
5.57                   0.2501693       -167.9414
5.58                   0.2501926       -171.1403
5.59                   0.2502074       -174.3392
5.6                    0.2502138       -177.5382
5.61                   0.2502117        179.2627
5.62                   0.2502011        176.0634
5.63                   0.2501821        172.8637
5.64                   0.2501548        169.6635
5.65                   0.2501194        166.4627
5.66                   0.2500759        163.2612
5.67                   0.2500245        160.0589
5.68                   0.2499655        156.8557
5.69                   0.2498989        153.6514
5.7                    0.2498252        150.4461
5.71                   0.2497445        147.2395
5.72                   0.2496572        144.0316
5.73                   0.2495635        140.8224
5.74                   0.2494639        137.6117
5.75                   0.2493587        134.3994
5.76                   0.2492482        131.1855
5.77                   0.2491329        127.9699
5.78                   0.2490131        124.7526
5.79                   0.2488894        121.5334
5.8                    0.2487622        118.3124
5.81                   0.2486318        115.0895
5.82                   0.2484989        111.8646
5.83                   0.2483638        108.6377
5.84                    0.248227        105.4088
5.85                   0.2480892        102.1778
5.86                   0.2479506        98.94478
5.87                    0.247812         95.7097
5.88                   0.2476737        92.47255
5.89                   0.2475362        89.23334
5.9                    0.2474002        85.99209
5.91                    0.247266        82.74879
5.92                   0.2471341        79.50352
5.93                   0.2470051        76.25626
5.94                   0.2468794        73.00707
5.95                   0.2467575        69.75599
5.96                   0.2466398         66.5031
5.97                   0.2465267        63.24845
5.98                   0.2464188        59.99208
5.99                   0.2463163         56.7341
6                      0.2462197        53.47454