! TOUCHSTONE file generated by CST MICROWAVE STUDIO
! Date and time: Wed Mar 12 19:57:40 2025
! Project name: Sheet_R376ab_Lo4_Deembeding.cst
! Parameters = {Dport=0; Dspace=5.76923; Lamb=11.5385; Rs=376; Xs=0; a=2.88462; b=2.88462; phi=0; theta=0}
! Header version: 2024
! Port assignment regex: !\s*Touchstone port\s*([0-9]+)\s*=\s*(CST MWS port|CST DES external port|CST DES block port)\s*(.+)\s* \(\"(.*)\"\)(\s*mode\s*([0-9]+))?.*
! Touchstone port assignment:
! Touchstone port 1 = CST MWS port Zmax ("") mode 1
! Touchstone port 2 = CST MWS port Zmax ("") mode 2
! Touchstone port 3 = CST MWS port Zmin ("") mode 1
! Touchstone port 4 = CST MWS port Zmin ("") mode 2
# GHz S MA R 376.73
20                 2.0601473e-06     -146.791667   7.93644349e-07      141.590266       0.99998211 -0.000652921037   1.98881839e-06     -0.83451972
                  1.04600635e-06      133.996366   6.32149269e-07      76.0923206   2.82379992e-06     -16.6753144      0.999990574  -0.00109249657
                     0.999969053  0.000598306794   2.30509167e-06    -0.776640927   6.48307515e-06      153.711323   1.17725318e-06     -165.541575
                  2.73779933e-06      7.25824012      0.999982945  0.000562375293   1.30168265e-06     -174.779846   5.64752342e-06      159.700985
20.02             2.04142353e-06      -146.82625   7.95081159e-07      141.386856      0.999982229 -0.000649396867   1.99612142e-06    -0.781517562
                  1.04735864e-06      133.903534   6.44972447e-07      75.6416575   2.83043886e-06     -16.6524627      0.999990604  -0.00108330931
                     0.999969147   0.00059318177   2.29895448e-06    -0.236914793   6.48175006e-06      153.570579   1.17559919e-06     -165.571082
                  2.72293549e-06      7.65618023      0.999982992  0.000560253757   1.29941462e-06     -174.801026   5.64585242e-06       159.54698
20.04              2.0226584e-06     -146.862776   7.96532714e-07      141.182039      0.999982347 -0.000645858433    2.0035318e-06    -0.727879396
                  1.04872416e-06      133.810137   6.57867299e-07      75.2104763   2.83715728e-06     -16.6293696      0.999990633  -0.00107416102
                     0.999969242  0.000588086681    2.2925935e-06     0.305000384   6.48042309e-06      153.429504   1.17393986e-06     -165.600623
                  2.70798036e-06      8.05325058       0.99998304  0.000558139948   1.29714079e-06     -174.822152   5.64418473e-06      159.392596
20.06             2.00385198e-06     -146.901317   7.97999191e-07      140.975798      0.999982464 -0.000642305956    2.0110519e-06    -0.673592434
                  1.05010308e-06       133.71617   6.70831237e-07      74.7977868    2.8439566e-06     -16.6060309      0.999990663  -0.00106505149
                     0.999969337  0.000583021978   2.28600788e-06     0.849024722    6.4790942e-06      153.288096   1.17227517e-06     -165.630198
                  2.69293686e-06      8.44941879      0.999983087  0.000556034049   1.29486113e-06     -174.843223   5.64252035e-06      159.237832
20.08             1.98500434e-06     -146.941943    7.9948077e-07      140.768119      0.999982582 -0.000638739654   2.01868412e-06    -0.618643528
                  1.05149558e-06      133.621626   6.83861852e-07      74.4026607   2.85083828e-06     -16.5824424      0.999990693  -0.00105598046
                     0.999969433  0.000577988109   2.27919697e-06       1.3950763   6.47776334e-06      153.146354    1.1706051e-06     -165.659804
                   2.6778079e-06      8.84465306      0.999983135  0.000553936242   1.29257565e-06     -174.864236   5.64085929e-06      159.082687
20.1              1.96611558e-06     -146.984731   8.00977635e-07      140.558987      0.999982698 -0.000635159744   2.02643098e-06    -0.563019154
                  1.05290183e-06      133.526498   6.96956903e-07      74.0242271   2.85780381e-06     -16.5585998      0.999990722  -0.00104694769
                     0.999969529  0.000572985521   2.27216026e-06      1.94307119    6.4764305e-06      153.004278   1.16892963e-06     -165.689443
                  2.66259644e-06      9.23892212      0.999983184  0.000551846711   1.29028432e-06     -174.885191   5.63920152e-06      158.927158
20.12              1.9471858e-06     -147.029758    8.0248997e-07      140.348385      0.999982814 -0.000631566441   2.03429503e-06    -0.506705402
                  1.05432202e-06      133.430782   7.10114302e-07      73.6616688   2.86485472e-06     -16.5344988      0.999990752  -0.00103795296
                     0.999969626   0.00056801466   2.26489745e-06      2.49292358   6.47509562e-06      152.861866   1.16724872e-06     -165.719114
                  2.64730542e-06       9.6321953      0.999983233  0.000549765641   1.28798713e-06     -174.906087   5.63754706e-06      158.771245
20.14              1.9282151e-06     -147.077107   8.04017961e-07      140.136297       0.99998293 -0.000627959958   2.04227893e-06    -0.449687956
                  1.05575632e-06      133.334469   7.23332105e-07      73.3142183   2.87199257e-06     -16.5101349      0.999990782  -0.00102899603
                     0.999969724  0.000563075968   2.25740841e-06      3.04454576   6.47375867e-06      152.719116   1.16556235e-06     -165.748815
                   2.6319378e-06      10.0244425      0.999983282   0.00054769322   1.28568407e-06     -174.926921    5.6358959e-06      158.614947
20.16             1.90920362e-06     -147.126863   8.05561798e-07      139.922706      0.999983045 -0.000624340506   2.05038541e-06    -0.391952085
                  1.05720493e-06      133.237554   7.36608496e-07      72.9811547   2.87921896e-06     -16.4855033      0.999990812  -0.00102007667
                     0.999969823  0.000558169886   2.24969317e-06      3.59784828   6.47241961e-06      152.576028    1.1638705e-06     -165.778547
                  2.61649654e-06      10.4156343      0.999983331  0.000545629635   1.28337512e-06     -174.947694   5.63424802e-06      158.458261
20.18              1.8901515e-06     -147.179116   8.07121674e-07      139.707597       0.99998316 -0.000620708296   2.05861726e-06    -0.333482624
                  1.05866802e-06       133.14003    7.4994178e-07      72.6618005   2.88653554e-06     -16.4605995      0.999990842  -0.00101119464
                     0.999969922  0.000553296851   2.24175198e-06      4.15273998    6.4710784e-06      152.432599   1.16217314e-06     -165.808308
                  2.60098461e-06      10.8057417      0.999983381  0.000543575075   1.28106026e-06     -174.968402   5.63260344e-06      158.301186
20.2              1.87105889e-06      -147.23396   8.08697783e-07      139.490953      0.999983274 -0.000617063536    2.0669774e-06    -0.274263956
                   1.0601458e-06       133.04189   7.63330374e-07      72.3555181   2.89394398e-06     -16.4354186      0.999990873  -0.00100234972
                     0.999970022    0.0005484573   2.23358525e-06      4.70912806     6.469735e-06       152.28883   1.16047025e-06     -165.838098
                  2.58540499e-06      11.1947366      0.999983431  0.000541529731   1.27873949e-06     -174.989044   5.63096214e-06      158.143722
20.22             1.85192596e-06     -147.291493    8.1029032e-07      139.272755      0.999983387 -0.000613406431   2.07546879e-06        -0.21428
                  1.06163845e-06      132.943127   7.76772798e-07      72.0617079   2.90144602e-06     -16.4099555      0.999990903 -0.000993541685
                     0.999970122  0.000543651666    2.2251936e-06      5.26691824   6.46838938e-06      152.144717    1.1587618e-06     -165.867916
                  2.56976065e-06      11.5825912      0.999983482  0.000539493796   1.27641279e-06      -175.00962   5.62932411e-06      157.985866
20.24             1.83275289e-06     -147.351816   8.11899487e-07      139.052988        0.9999835 -0.000609737188   2.08409453e-06    -0.153514189
                  1.06314618e-06      132.843734   7.90267667e-07      71.7798053   2.90904342e-06     -16.3842054      0.999990933 -0.000984770299
                     0.999970224  0.000538880377   2.21657783e-06      5.82601477   6.46704149e-06      152.000261   1.15704777e-06     -165.897763
                  2.55405454e-06      11.9692787      0.999983532  0.000537467462   1.27408015e-06     -175.030128   5.62768936e-06      157.827617
20.26              1.8135399e-06     -147.415038   8.13525483e-07      138.831633      0.999983612 -0.000606056009   2.09285778e-06   -0.0919494514
                  1.06466919e-06      132.743704   8.03813685e-07      71.5092782   2.91673799e-06     -16.3581628      0.999990963 -0.000976035345
                     0.999970325  0.000534143863   2.20773892e-06      6.38632056    6.4656913e-06       151.85546   1.15532813e-06     -165.927636
                  2.53828963e-06      12.3547727      0.999983584  0.000535450924   1.27174154e-06     -175.050565   5.62605787e-06      157.668974
20.28              1.7942872e-06     -147.481271   8.15168515e-07      138.608672      0.999983724 -0.000602363096   2.10176182e-06   -0.0295681936
                  1.06620768e-06      132.643029   8.17409636e-07      71.2496251    2.9245316e-06     -16.3318226      0.999990994 -0.000967336598
                     0.999970428  0.000529442546   2.19867808e-06      6.94773728   6.46433876e-06      151.710311   1.15360286e-06     -165.957535
                  2.52246888e-06      12.7390476      0.999983635  0.000533444377   1.26939697e-06     -175.070931   5.62442964e-06      157.509935
20.3              1.77499504e-06     -147.550632   8.16828788e-07      138.384087      0.999983836 -0.000598658648   2.11081002e-06    0.0336477224
                  1.06776187e-06      132.541703   8.31054382e-07      71.0003732   2.93242614e-06     -16.3051792      0.999991024 -0.000958673838
                     0.999970531  0.000524776849   2.18939668e-06      7.51016548   6.46298383e-06      151.564815   1.15187193e-06      -165.98746
                  2.50659523e-06      13.1220783      0.999983687  0.000531448019    1.2670464e-06     -175.091225   5.62280468e-06      157.350498
20.32             1.75566367e-06     -147.623246   8.18506511e-07       138.15786      0.999983946 -0.000594942864   2.12000588e-06    0.0977170002
                  1.06933196e-06      132.439718   8.44746854e-07       70.761076   2.94042358e-06     -16.2782271      0.999991055 -0.000950046847
                     0.999970635   0.00052014719    2.1798963e-06      8.07350466   6.46162648e-06       151.41897   1.15013531e-06      -166.01741
                  2.49067161e-06      13.5038406      0.999983739  0.000529462047   1.26468984e-06     -175.111443   5.62118296e-06      157.190663
20.34             1.73629339e-06     -147.699242   8.20201898e-07      137.929971      0.999984057 -0.000591215941   2.12935298e-06     0.162658931
                  1.07091818e-06      132.337065   8.58486049e-07       70.531312   2.94852592e-06     -16.2509606      0.999991085 -0.000941455406
                     0.999970739  0.000515553982   2.17017869e-06      8.63765339   6.46026665e-06      151.272774   1.14839298e-06     -166.047384
                  2.47470095e-06      13.8843107      0.999983791  0.000527486661   1.26232726e-06     -175.131585   5.61956448e-06      157.030427
20.36              1.7168845e-06     -147.778756   8.21915162e-07      137.700403      0.999984166 -0.000587478072   2.13885506e-06     0.228493419
                  1.07252074e-06      132.233739   8.72271026e-07      70.3106829   2.95673522e-06     -16.2233736      0.999991116 -0.000932899299
                     0.999970844  0.000510997638   2.16024583e-06      9.20250944   6.45890431e-06      151.126226   1.14664492e-06     -166.077382
                  2.45868615e-06      14.2634657      0.999983844  0.000525522062   1.25995866e-06      -175.15165   5.61794925e-06       156.86979
20.38             1.69743733e-06     -147.861931    8.2364652e-07      137.469135      0.999984276 -0.000583729452   2.14851594e-06     0.295241003
                  1.07413986e-06      132.129729   8.86100898e-07      70.0988124   2.96505359e-06     -16.1954602      0.999991147 -0.000924378312
                      0.99997095  0.000506478566   2.15009985e-06      9.76796986   6.45753942e-06      150.979324   1.14489109e-06     -166.107402
                   2.4426301e-06      14.6412834      0.999983897  0.000523568451   1.25758401e-06     -175.171635   5.61633724e-06      156.708749
20.4              1.67795225e-06     -147.948917   8.25396193e-07      137.236148      0.999984384 -0.000579970271   2.15833959e-06     0.362922887
                  1.07577579e-06      132.025029   8.99974832e-07      69.8953442   2.97348321e-06     -16.1672143      0.999991177 -0.000915892232
                     0.999971056   0.00050199717   2.13974308e-06      10.3339311   6.45617193e-06      150.832068   1.14313147e-06     -166.137443
                  2.42653568e-06      15.0177421      0.999983951  0.000521626031   1.25520331e-06     -175.191538   5.61472846e-06      156.547303
20.42             1.65842964e-06     -148.039872   8.27164401e-07      137.001421      0.999984493 -0.000576200721   2.16833012e-06     0.431560964
                  1.07742873e-06      131.919631   9.13892047e-07      69.6999413   2.98202629e-06     -16.1386293      0.999991208 -0.000907440848
                     0.999971163  0.000497553849   2.12917806e-06      10.9002893    6.4548018e-06      150.684455   1.14136603e-06     -166.167506
                  2.41040572e-06       15.392821      0.999984005  0.000519695005   1.25281654e-06     -175.211359    5.6131229e-06      156.385451
20.44             1.63886993e-06     -148.134961   8.28951372e-07      136.764936        0.9999846 -0.000572420988   2.17849174e-06     0.501177847
                  1.07909895e-06      131.813525   9.27851802e-07      69.5122846   2.99068512e-06     -16.1096989      0.999991239 -0.000899023948
                      0.99997127  0.000493149001   2.11840748e-06        11.46694   6.45342899e-06      150.536484   1.13959475e-06     -166.197589
                  2.39424307e-06      15.7664998      0.999984059  0.000517775578   1.25042369e-06     -175.231095   5.61152054e-06       156.22319
20.46             1.61927355e-06      -148.23436   8.30757331e-07       136.52667      0.999984708  -0.00056863126   2.18882885e-06     0.571796896
                  1.08078667e-06      131.706704   9.41853405e-07      69.3320715   2.99946206e-06     -16.0804163       0.99999127 -0.000890641326
                     0.999971378  0.000488783019   2.10743421e-06      12.0337786   6.45205345e-06      150.388155    1.1378176e-06     -166.227691
                  2.37805053e-06      16.1387591      0.999984113  0.000515867958   1.24802474e-06     -175.250744    5.6099214e-06      156.060521
20.48             1.59964101e-06     -148.338252    8.3258251e-07      136.286603      0.999984814 -0.000564831722   2.19934597e-06     0.643442254
                  1.08249213e-06      131.599159   9.55896201e-07      69.1590153    3.0083595e-06     -16.0507746      0.999991301 -0.000882292773
                     0.999971486  0.000484456291   2.09626132e-06      12.6007005   6.45067514e-06      150.239465   1.13603456e-06     -166.257812
                  2.36183087e-06      16.5095801      0.999984168  0.000513972349   1.24561969e-06     -175.270305   5.60832545e-06       155.89744
20.5              1.57997281e-06     -148.446832   8.34427141e-07      136.044713       0.99998492 -0.000561022558   2.21004778e-06      0.71613888
                   1.0842156e-06      131.490881   9.69979571e-07      68.9928442   3.01737994e-06     -16.0207668      0.999991332 -0.000873978085
                     0.999971596  0.000480169201   2.08489204e-06      13.1676011   6.44929401e-06      150.090413   1.13424559e-06      -166.28795
                  2.34558685e-06      16.8789446      0.999984223  0.000512088962   1.24320851e-06     -175.289776   5.60673269e-06      155.733946
20.52             1.56026953e-06     -148.560302   8.36291459e-07       135.80098      0.999985026 -0.000557203948   2.22093914e-06      0.78991258
                  1.08595732e-06      131.381862   9.84102934e-07         68.8333   3.02652591e-06     -15.9903856      0.999991363 -0.000865697058
                     0.999971705   0.00047592213   2.07332974e-06      13.7343757   6.44791002e-06      149.940998   1.13245067e-06     -166.318104
                  2.32932119e-06      17.2468352      0.999984278  0.000510218004    1.2407912e-06     -175.309155   5.60514311e-06      155.570038
20.54             1.54053177e-06      -148.67888   8.38175704e-07      135.555381      0.999985131 -0.000553376073   2.23202506e-06     0.864790048
                  1.08771754e-06      131.272092    9.9826574e-07      68.6801377   3.03580002e-06     -15.9596236      0.999991394 -0.000857449488
                     0.999971815  0.000471715453   2.06157799e-06      14.3009202   6.44652313e-06      149.791218   1.13064978e-06     -166.348274
                  2.31303659e-06      17.6132353      0.999984334  0.000508359686   1.23836774e-06     -175.328441    5.6035567e-06      155.405715
20.56             1.52076017e-06     -148.802792   8.40080115e-07      135.307893      0.999985236 -0.000549539113   2.24331073e-06     0.940798905
                  1.08949655e-06      131.161562   1.01246747e-06      68.5331243   3.04520498e-06     -15.9284731      0.999991425 -0.000849235175
                     0.999971926  0.000467549541   2.04964049e-06      14.8671305   6.44513329e-06      149.641072   1.12884288e-06      -166.37846
                  2.29673571e-06      17.9781288       0.99998439  0.000506514218   1.23593812e-06      -175.34763   5.60197346e-06      155.240973
20.58             1.50095544e-06     -148.932278   8.42004936e-07      135.058495       0.99998534 -0.000545693243   2.25480153e-06      1.01796774
                  1.09129459e-06      131.050262   1.02670764e-06      68.3920387   3.05474354e-06     -15.8969263      0.999991456 -0.000841053919
                     0.999972038  0.000463424763    2.0375211e-06      15.4329034   6.44374044e-06      149.490557   1.12702995e-06     -166.408658
                  2.28042119e-06      18.3415004      0.999984447  0.000504681812   1.23350233e-06     -175.366722   5.60039338e-06      155.075813
20.6              1.48111833e-06     -149.067593   8.43950414e-07      134.807162      0.999985444  -0.00054183864   2.26650304e-06      1.09632614
                  1.09311195e-06      130.938184   1.04098577e-06      68.2566702   3.06441854e-06     -15.8649751      0.999991487 -0.000832905522
                      0.99997215  0.000459341478   2.02522381e-06      15.9981359   6.44234456e-06      149.339674   1.12521096e-06      -166.43887
                  2.26409563e-06      18.7033355      0.999984504  0.000502862682   1.23106035e-06     -175.385715   5.59881645e-06      154.910232
20.62             1.46124963e-06     -149.209004   8.45916797e-07      134.553872      0.999985547 -0.000537975476   2.27842104e-06      1.17590478
                   1.0949489e-06      130.825317   1.05530144e-06      68.1268188   3.07423291e-06     -15.8326112      0.999991518 -0.000824789786
                     0.999972262  0.000455300046   2.01275278e-06      16.5627261   6.44094558e-06       149.18842   1.12338589e-06     -166.469093
                  2.24776159e-06      19.0636202      0.999984561   0.00050105704   1.22861217e-06     -175.404605   5.59724265e-06      154.744228
20.64             1.44135023e-06     -149.356796   8.47904337e-07        134.2986      0.999985649 -0.000534103925    2.2905615e-06      1.25673539
                  1.09680573e-06      130.711651   1.06965423e-06      68.0022937   3.08418966e-06      -15.799826       0.99999155 -0.000816706517
                     0.999972375  0.000451300817   2.00011226e-06      17.1265726   6.43954346e-06      149.036793    1.1215547e-06     -166.499328
                   2.2314216e-06      19.4223412      0.999984618  0.000499265101   1.22615778e-06     -175.423392   5.59567199e-06        154.5778
20.66             1.42142104e-06      -149.51127   8.49913287e-07      134.041323      0.999985751 -0.000530224158   2.30293064e-06      1.33885091
                  1.09868272e-06      130.597177   1.08404376e-06      67.8829134   3.09429187e-06     -15.7666108      0.999991581 -0.000808655519
                     0.999972488   0.00044734414   1.98730666e-06      17.6895753   6.43813816e-06      148.884793   1.11971737e-06     -166.529572
                  2.21507815e-06       19.779486      0.999984676   0.00049748708   1.22369717e-06     -175.442074   5.59410446e-06      154.410947
20.68             1.40146307e-06     -149.672744   8.51943905e-07      133.782016      0.999985853 -0.000526336342   2.31553489e-06      1.42228544
                  1.10058017e-06      130.481884   1.09846963e-06      67.7685049   3.10454274e-06     -15.7329565      0.999991612 -0.000800636602
                     0.999972602  0.000443430357   1.97434047e-06      18.2516348   6.43672962e-06      148.732417   1.11787388e-06     -166.559824
                   2.1987337e-06      20.1350427      0.999984734  0.000495723193   1.22123032e-06     -175.460647   5.59254003e-06      154.243666
20.7              1.38147739e-06     -149.841556   8.53996449e-07      133.520654      0.999985954 -0.000522440647   2.32838094e-06      1.50707438
                  1.10249837e-06      130.365762   1.11293152e-06      67.6589033   3.11494554e-06     -15.6988539      0.999991644 -0.000792649572
                     0.999972717  0.000439559805   1.96121832e-06      18.8126531    6.4353178e-06      148.579665   1.11602418e-06     -166.590084
                  2.18239068e-06          20.489      0.999984792  0.000493973656   1.21875722e-06     -175.479111   5.59097872e-06      154.075956
20.72             1.36146516e-06     -150.018066   8.56071181e-07       133.25721      0.999986055 -0.000518537237   2.34147573e-06      1.59325444
                  1.10443764e-06        130.2488   1.12742909e-06      67.5539513   3.12550364e-06     -15.6642933      0.999991675  -0.00078469424
                     0.999972832  0.000435732816   1.94794492e-06      19.3725335   6.43390265e-06      148.426534   1.11416826e-06     -166.620351
                  2.16605145e-06      20.8413476      0.999984851  0.000492238688   1.21627786e-06     -175.497463   5.58942049e-06      153.907815
20.74             1.34142762e-06     -150.202654   8.58168366e-07      132.991661      0.999986155 -0.000514626278   2.35482644e-06      1.68086373
                  1.10639828e-06      130.130986   1.14196202e-06      67.4534989   3.13622053e-06      -15.629265      0.999991706 -0.000776770417
                     0.999972947  0.000431949717   1.93452509e-06      19.9311805   6.43248411e-06      148.273023   1.11230609e-06     -166.650622
                  2.14971836e-06      21.1920754       0.99998491  0.000490518506   1.21379222e-06       -175.5157   5.58786536e-06      153.739241
20.76             1.32136611e-06     -150.395725    8.6028827e-07      132.723978      0.999986255 -0.000510707932   2.36844056e-06      1.76994179
                   1.1083806e-06      130.012312   1.15653001e-06      67.3574028   3.14709976e-06     -15.5937587      0.999991738 -0.000768877916
                     0.999973063  0.000428210828   1.92096373e-06      20.4885003   6.43106215e-06      148.119131   1.11043764e-06     -166.680898
                  2.13339371e-06      21.5411743       0.99998497  0.000488813329    1.2113003e-06     -175.533821   5.58631329e-06      153.570234
20.78             1.30128206e-06     -150.597709   8.62431163e-07      132.454136      0.999986354 -0.000506782361   2.38232586e-06      1.86052972
                  1.11038494e-06      129.892764   1.17113279e-06      67.2655263   3.15814505e-06     -15.5577642      0.999991769 -0.000761016551
                      0.99997318  0.000424516466   1.90726581e-06      21.0444003   6.42963671e-06      147.964855   1.10856287e-06     -166.711177
                  2.11707975e-06      21.8886358      0.999985029  0.000487123375   1.20880209e-06     -175.551823    5.5847643e-06       153.40079
20.8              1.28117703e-06     -150.809066   8.64597316e-07      132.182107      0.999986452 -0.000502849724   2.39649042e-06      1.95267021
                  1.11241161e-06      129.772331   1.18577008e-06      67.1777387   3.16936017e-06     -15.5212705      0.999991801 -0.000753186137
                     0.999973297   0.00042086694   1.89343637e-06      21.5987899   6.42820773e-06      147.810195   1.10668177e-06     -166.741457
                  2.10077871e-06      22.2344518      0.999985089  0.000485448866   1.20629756e-06     -175.569705   5.58321836e-06      153.230908
20.82             1.26105268e-06     -151.030282   8.66787002e-07      131.907863      0.999986551 -0.000498910181   2.41094263e-06      2.04640762
                  1.11446096e-06      129.651002   1.20044164e-06       67.093915   3.18074905e-06     -15.4842667      0.999991832 -0.000745386491
                     0.999973414  0.000417262555   1.87948054e-06      22.1515801   6.42677518e-06      147.655148    1.1047943e-06     -166.771738
                  2.08449276e-06      22.5786153       0.99998515   0.00048379002   1.20378672e-06     -175.587463   5.58167546e-06      153.060587
20.84              1.2409108e-06      -151.26188     8.690005e-07      131.631377      0.999986648 -0.000494963888   2.42569122e-06      2.14178809
                  1.11653332e-06      129.528765   1.21514722e-06      67.0139358   3.19231572e-06     -15.4467413      0.999991864 -0.000737617429
                     0.999973532  0.000413703609   1.86540347e-06      22.7026838   6.42533899e-06      147.499714   1.10290044e-06     -166.802018
                  2.06822403e-06      22.9211195       0.99998521   0.00048214706   1.20126954e-06     -175.605096    5.5801356e-06      152.889824
20.86             1.22075334e-06     -151.504413   8.71238087e-07       131.35262      0.999986746 -0.000491011001   2.44074528e-06      2.23885963
                  1.11862905e-06      129.405608   1.22988659e-06       66.937687   3.20406435e-06     -15.4086826      0.999991895 -0.000729878773
                      0.99997365  0.000410190395   1.85121036e-06      23.2520155   6.42389911e-06       147.34389   1.10100015e-06     -166.832297
                  2.05197461e-06      23.2619585      0.999985271  0.000480520206   1.19874602e-06       -175.6226   5.57859877e-06      152.718618
20.88             1.20058238e-06     -151.758475   8.73500043e-07      131.071562      0.999986842 -0.000487051672   2.45611428e-06      2.33767217
                  1.12074849e-06      129.281518   1.24465955e-06      66.8650592   3.21599922e-06     -15.3700785      0.999991927 -0.000722170341
                     0.999973769    0.0004067232   1.83690646e-06       23.799492    6.4224555e-06      147.187675   1.09909341e-06     -166.862571
                  2.03574655e-06      23.6011268      0.999985333  0.000478909679   1.19621615e-06     -175.639974   5.57706495e-06      152.546968
20.9              1.18040018e-06     -152.024701   8.75786653e-07      130.788174      0.999986939 -0.000483086056   2.47180805e-06      2.43827771
                  1.12289201e-06      129.156483   1.25946589e-06      66.7959477   3.22812476e-06     -15.3309164      0.999991958 -0.000714491956
                     0.999973888  0.000403302305   1.82249704e-06      24.3450321    6.4210081e-06      147.031067   1.09718019e-06     -166.892841
                  2.01954185e-06      23.9386197      0.999985394  0.000477315703   1.19367991e-06     -175.657216   5.57553413e-06       152.37487
20.92             1.16020918e-06     -152.303767     8.780982e-07      130.502427      0.999987034 -0.000479114302   2.48783687e-06      2.54073042
                  1.12505998e-06       129.03049    1.2743054e-06      66.7302525   3.24044555e-06     -15.2911835       0.99999199  -0.00070684344
                     0.999974008  0.000399927983   1.80798741e-06      24.8885564   6.41955685e-06      146.874064   1.09526046e-06     -166.923105
                  2.00336247e-06      24.2744331      0.999985456    0.0004757385    1.1911373e-06     -175.674322    5.5740063e-06      152.202324
20.94               1.140012e-06       -152.5964   8.80434973e-07      130.214288       0.99998713 -0.000475136561   2.50421142e-06      2.64508674
                  1.12725277e-06      128.903525   1.28917792e-06      66.6678774   3.25296629e-06     -15.2508665      0.999992022 -0.000699224617
                     0.999974128  0.000396600505   1.79338287e-06       25.429988   6.41810172e-06      146.716665   1.09333419e-06     -166.953361
                  1.98721034e-06      24.6085633      0.999985519  0.000474178291   1.18858829e-06      -175.69129   5.57248145e-06      152.029328
20.96              1.1198115e-06     -152.903376   8.82797259e-07      129.923728      0.999987224  -0.00047115298   2.52094285e-06      2.75140549
                  1.12947077e-06      128.775576   1.30408326e-06      66.6087306   3.26569185e-06     -15.2099516      0.999992053 -0.000691635313
                     0.999974248  0.000393320131   1.77868873e-06      25.9692519   6.41664263e-06      146.558869   1.09140135e-06     -166.983608
                  1.97108731e-06      24.9410074      0.999985581  0.000472635301   1.18603289e-06     -175.708117   5.57095957e-06      151.855879
20.98             1.09961075e-06     -153.225531    8.8518535e-07      129.630715      0.999987319 -0.000467163706   2.53804279e-06      2.85974804
                  1.13171437e-06      128.646628   1.31902126e-06      66.5527237   3.27862725e-06     -15.1684247      0.999992085 -0.000684075354