! TOUCHSTONE file generated by CST MICROWAVE STUDIO
! Date and time: Mon Mar 10 01:40:36 2025
! Project name: Untitled_0.cst
! Parameters = {X=0; R=376; h=0.230769; lamb=11.5385; dspace=2.88462; b=2.88462; a=2.88462; phi=0; theta=0}
! Header version: 2024
! Port assignment regex: !\s*Touchstone port\s*([0-9]+)\s*=\s*(CST MWS port|CST DES external port|CST DES block port)\s*(.+)\s* \(\"(.*)\"\)(\s*mode\s*([0-9]+))?.*
! Touchstone port assignment:
! Touchstone port 1 = CST MWS port Zmax ("") mode 1
! Touchstone port 2 = CST MWS port Zmax ("") mode 2
! Touchstone port 3 = CST MWS port Zmin ("") mode 1
! Touchstone port 4 = CST MWS port Zmin ("") mode 2
# GHz S MA R 376.73
24                    0.33376353       166.69851   2.67176378e-07      143.442242      0.666231564      -13.301435   2.34353837e-07      6.72682494
                  5.65790392e-07      169.515744      0.333762311      166.698461   2.25194731e-07      11.1824605      0.666231769     -13.3014508
                     0.666239185     -13.3016464    2.5306142e-07     0.730027439      0.333762151      166.698443   2.47471134e-07     -132.382935
                  4.87507175e-07      5.14183835       0.66623181     -13.3015029    2.3867704e-07     -123.155216      0.333762259      166.698469
24.016               0.333763505      166.689639   2.67637718e-07      143.366813      0.666231593     -13.3103028   2.34571085e-07      6.99856931
                  5.69742371e-07      169.333549      0.333762315      166.689591   2.25343378e-07      11.4852187      0.666231803     -13.3103186
                     0.666239152     -13.3105122    2.5378449e-07     0.774236143      0.333762146      166.689574   2.48622738e-07     -132.052044
                  4.92246284e-07      5.38317986       0.66623184     -13.3103695   2.40569831e-07     -122.683495      0.333762261      166.689599
24.032                0.33376348      166.680769   2.68105731e-07      143.290347      0.666231621     -13.3191707    2.3478599e-07      7.27358578
                  5.73788617e-07      169.146897       0.33376232       166.68072   2.25487837e-07      11.7914691      0.666231836     -13.3191863
                      0.66623912      -13.319378   2.54519734e-07     0.819181778      0.333762141      166.680706    2.4978799e-07     -131.714618
                  4.97121967e-07      5.63198722       0.66623187     -13.3192362   2.42495294e-07     -122.198932      0.333762263      166.680729
24.048               0.333763455      166.671899   2.68580546e-07      143.212823      0.666231648     -13.3280385   2.34998397e-07      7.55192062
                  5.77932345e-07      168.955627      0.333762324       166.67185   2.25627914e-07      12.1012543      0.666231869      -13.328054
                     0.666239087     -13.3282438   2.55267445e-07     0.864882422      0.333762136      166.671838   2.50966879e-07      -131.37049
                   5.0213984e-07      5.88859822        0.6662319     -13.3281028   2.44453533e-07     -121.701081      0.333762265      166.671859
24.064               0.333763432      166.663029   2.69062295e-07       143.13422      0.666231676     -13.3369064   2.35208146e-07       7.8336206
                  5.82176907e-07      168.759567      0.333762329       166.66298   2.25763409e-07      12.4146177      0.666231902     -13.3369217
                     0.666239055     -13.3371096   2.56027926e-07     0.911356742      0.333762132      166.662969   2.52159375e-07     -131.019488
                  5.07305802e-07      6.15337061       0.66623193     -13.3369695   2.46444584e-07     -121.189483      0.333762268      166.662989
24.08                0.333763409      166.654158   2.69551114e-07      143.054515      0.666231704     -13.3457742    2.3541507e-07      8.11873297
                  5.86525805e-07      168.558539      0.333762334       166.65411   2.25894117e-07      12.7316023      0.666231934     -13.3457895
                     0.666239023     -13.3459754   2.56801491e-07     0.958624021      0.333762128      166.654101   2.53365427e-07     -130.661436
                  5.12626061e-07      6.42668353       0.66623196     -13.3458362   2.48468396e-07     -120.663662       0.33376227      166.654119
24.096               0.333763386      166.645288   2.70047141e-07      142.973685      0.666231732     -13.3546421   2.35618998e-07      8.40730545
                  5.90982692e-07      168.352355      0.333762339       166.64524   2.26019825e-07      13.0522516      0.666231967     -13.3546572
                     0.666238991     -13.3548413   2.57588462e-07      1.00670418      0.333762124      166.645232   2.54584961e-07     -130.296152
                  5.18107147e-07      6.70893909      0.666231989     -13.3547029   2.50524829e-07     -120.123128      0.333762273      166.645249
24.112               0.333763364      166.636418   2.70550518e-07      142.891706      0.666231759       -13.36351   2.35819751e-07      8.69938621
                  5.95551386e-07      168.140818      0.333762345       166.63637   2.26140316e-07       13.376609      0.666231999      -13.363525
                     0.666238959     -13.3637071   2.58389174e-07      1.05561782      0.333762121      166.636364   2.55817881e-07     -129.923452
                   5.2375593e-07      7.00056406      0.666232019     -13.3635696   2.52613638e-07     -119.567373      0.333762276      166.636379
24.128               0.333763343      166.627548   2.71061392e-07      142.808556      0.666231787     -13.3723778   2.36017144e-07      8.99502386
                  6.00235875e-07      167.923721       0.33376235        166.6275   2.26255364e-07      13.7047181      0.666232032     -13.3723927
                     0.666238928      -13.372573   2.59203971e-07      1.10538621      0.333762117      166.627495    2.5706406e-07     -129.543145
                  5.29579642e-07      7.30201168      0.666232048     -13.3724363    2.5473446e-07     -118.995875       0.33376228      166.627509
24.144               0.333763322      166.618678   2.71579912e-07      142.724208      0.666231815     -13.3812457   2.36210985e-07      9.29426743
                  6.05040325e-07      167.700848      0.333762356       166.61863   2.26364739e-07      14.0366223      0.666232064     -13.3812604
                     0.666238897     -13.3814389    2.6003321e-07      1.15603138      0.333762115      166.618627   2.58323348e-07     -129.155035
                  5.35585896e-07      7.61376366      0.666232078     -13.3813031   2.56886803e-07     -118.408095      0.333762283      166.618639
24.16                0.333763302      166.609808   2.72106231e-07      142.638638      0.666231842     -13.3901135   2.36401075e-07      9.59716637
                  6.09969091e-07       167.47197      0.333762362       166.60976   2.26468202e-07      14.3723654      0.666232096     -13.3901282
                     0.666238866     -13.3903048   2.60877259e-07      1.20757608      0.333762112      166.609758   2.59595557e-07     -128.758924
                  5.41782705e-07      7.93633233      0.666232107     -13.3901698   2.59070028e-07     -117.803479      0.333762287       166.60977
24.176               0.333763282      166.600938   2.72640507e-07      142.551819      0.666231869     -13.3989814   2.36587209e-07       9.9037705
                  6.15026728e-07      167.236846      0.333762368       166.60089   2.26565508e-07      14.7119908      0.666232128     -13.3989959
                     0.666238835     -13.3991707   2.61736499e-07      1.26004387       0.33376211       166.60089   2.60880471e-07     -128.354607
                   5.4817851e-07      8.27026301      0.666232136     -13.3990366   2.61283337e-07     -117.181457      0.333762291        166.6009
24.192               0.333763263      166.592068   2.73182901e-07      142.463725      0.666231897     -13.4078493   2.36769175e-07        10.21413
                  6.20217998e-07      166.995223      0.333762375       166.59202   2.26656406e-07       15.055542       0.66623216     -13.4078637
                     0.666238804     -13.4080366   2.62611324e-07      1.31345913      0.333762108      166.592021   2.62177835e-07     -127.941874
                  5.54782197e-07      8.61613656      0.666232165     -13.4079034   2.63525751e-07     -116.541445      0.333762295       166.59203
24.208               0.333763245      166.583198   2.73733579e-07      142.374327      0.666231924     -13.4167172   2.36946752e-07      10.5282955
                  6.25547881e-07      166.746834      0.333762381      166.583151   2.26740637e-07      15.4030625      0.666232191     -13.4167314
                     0.666238773     -13.4169026   2.63502142e-07      1.36784709      0.333762106      166.583153   2.63487354e-07     -127.520511
                  5.61603122e-07      8.97457209      0.666232194     -13.4167702   2.65796092e-07     -115.882844        0.3337623      166.583161
24.224               0.333763227      166.574328   2.74292711e-07      142.283597      0.666231951      -13.425585   2.37119712e-07      10.8463177
                   6.3102159e-07        166.4914      0.333762388      166.574281   2.26817935e-07      15.7545954      0.666232223     -13.4255992
                     0.666238743     -13.4257685   2.64409374e-07      1.42323388      0.333762105      166.574285   2.64808691e-07     -127.090298
                  5.68651138e-07      9.34623008      0.666232223      -13.425637   2.68092966e-07     -115.205042      0.333762304      166.574291
24.24                 0.33376321      166.565458    2.7486047e-07      142.191505      0.666231978     -13.4344529   2.37287822e-07       11.168248
                  6.36644579e-07      166.228623      0.333762394      166.565411   2.26888028e-07      16.1101838      0.666232254     -13.4344669
                     0.666238713     -13.4346345   2.65333456e-07      1.47964657      0.333762104      166.565416   2.66141465e-07     -126.651012
                  5.75936618e-07      9.73181558      0.666232252     -13.4345038   2.70414738e-07     -114.507416      0.333762309      166.565421
24.256               0.333763193      166.556588   2.75437037e-07      142.098023      0.666232005     -13.4433208   2.37450837e-07      11.4941376
                  6.42422556e-07      165.958192      0.333762401      166.556542   2.26950635e-07      16.4698706      0.666232285     -13.4433347
                     0.666238683     -13.4435005   2.66274841e-07       1.5371132      0.333762103      166.556548   2.67485243e-07     -126.202425
                  5.83470476e-07      10.1320818       0.66623228     -13.4433706   2.72759507e-07      -113.78933      0.333762314      166.556552
24.272               0.333763177      166.547718   2.76022595e-07      142.003117      0.666232032     -13.4521886   2.37608505e-07      11.8240383
                  6.48361497e-07      165.679777      0.333762409      166.547672   2.27005468e-07      16.8336984      0.666232316     -13.4522024
                     0.666238653     -13.4523665   2.67233997e-07      1.59566285      0.333762102      166.547679   2.68839543e-07     -125.744304
                  5.91264197e-07      10.5478341      0.666232309     -13.4522374   2.75125087e-07      -113.05014      0.333762319      166.547682
24.288               0.333763161      166.538848   2.76617332e-07      141.906757      0.666232059     -13.4610565   2.37760569e-07      12.1580018
                  6.54467659e-07      165.393029      0.333762416      166.538803   2.27052233e-07      17.2017092      0.666232347     -13.4610702
                     0.666238624     -13.4612325   2.68211408e-07      1.65532565      0.333762102      166.538811   2.70203822e-07     -125.276409
                  5.99329858e-07       10.979934      0.666232337     -13.4611043   2.77508976e-07     -112.289194      0.333762324      166.538813
24.304               0.333763145      166.529978   2.77221442e-07       141.80891      0.666232086     -13.4699244   2.37906759e-07      12.4960804
                  6.60747592e-07       165.09758      0.333762423      166.529933   2.27090628e-07       17.573945      0.666232378      -13.469938
                     0.666238594     -13.4700985   2.69207576e-07      1.71613285      0.333762102      166.529943   2.71577479e-07     -124.798501
                   6.0768015e-07       11.429304      0.666232366     -13.4699712   2.79908332e-07     -111.505835       0.33376233      166.529944
24.32                0.333763131      166.521108   2.77835124e-07      141.709541      0.666232113     -13.4787923   2.38046798e-07      12.8383261
                  6.67208158e-07      164.793041      0.333762431      166.521064   2.27120342e-07      17.9504472      0.666232409     -13.4788057
                     0.666238565     -13.4789645   2.70223023e-07      1.77811689      0.333762102      166.521074   2.72959849e-07     -124.310333
                  6.16328397e-07      11.8969325      0.666232394      -13.478838   2.82319942e-07     -110.699403      0.333762335      166.521074
24.336               0.333763116      166.512238   2.78458582e-07      141.608616       0.66623214     -13.4876602   2.38180402e-07      13.1847912
                  6.73856541e-07         164.479      0.333762438      166.512195   2.27141058e-07      18.3312566      0.666232439     -13.4876735
                     0.666238536     -13.4878306   2.71258288e-07      1.84131141      0.333762103      166.512206   2.74350196e-07     -123.811654
                  6.25288579e-07      12.3838793      0.666232422     -13.4877049   2.84740196e-07      -109.86924      0.333762341      166.512205
24.352               0.333763103      166.503368   2.79092025e-07      141.506098      0.666232166      -13.496528   2.38307276e-07       13.535528
                  6.80700263e-07      164.155022      0.333762446      166.503325   2.27152452e-07      18.7164137       0.66623247     -13.4965413
                     0.666238507     -13.4966967   2.72313932e-07      1.90575135      0.333762103      166.503338   2.75747709e-07     -123.302211
                  6.34575335e-07      12.8912814       0.66623245     -13.4965718   2.87165054e-07     -109.014691      0.333762347      166.503336
24.368               0.333763089      166.494498    2.7973567e-07       141.40195      0.666232193     -13.5053959   2.38427116e-07      13.8905889
                  6.87747203e-07      163.820643      0.333762454      166.494456   2.27154192e-07      19.1059581        0.6662325      -13.505409
                     0.666238479     -13.5055627   2.73390536e-07        1.971473      0.333762104      166.494469   2.77151502e-07     -122.781746
                  6.44203982e-07      13.4203597      0.666232478     -13.5054387   2.89590018e-07     -108.135108      0.333762353      166.494466
24.384               0.333763077      166.485629   2.80389738e-07      141.296135       0.66623222     -13.5142638    2.3853961e-07      14.2500261
                  6.95005611e-07      163.475375      0.333762462      166.485587   2.27145937e-07       19.499929       0.66623253     -13.5142768
                      0.66623845     -13.5144288   2.74488702e-07      2.03851404      0.333762106      166.485601   2.78560602e-07         -122.25
                  6.54190504e-07      13.9724256      0.666232506     -13.5143056   2.92010103e-07     -107.229859      0.333762359      166.485597
24.4                 0.333763064      166.476759   2.81054455e-07      141.188612      0.666232246     -13.5231317   2.38644435e-07      14.6138918
                   7.0248412e-07      163.118698       0.33376247      166.476718   2.27127341e-07      19.8983646       0.66623256     -13.5231446
                     0.666238422     -13.5232949   2.75609057e-07      2.10691365      0.333762107      166.476733   2.79973948e-07     -121.706709
                   6.6455155e-07      14.5488888      0.666232533     -13.5231726   2.94419808e-07     -106.298327      0.333762365      166.476728
24.416               0.333763053      166.467889   2.81730056e-07      141.079341      0.666232272     -13.5319996   2.38741259e-07      14.9822381
                   7.1019177e-07      162.750061      0.333762479      166.467848   2.27098048e-07      20.3013023       0.66623259     -13.5320123
                     0.666238394     -13.5321611   2.76752251e-07      2.17671255      0.333762109      166.467864   2.81390385e-07     -121.151608
                  6.75304406e-07      15.1512654      0.666232561     -13.5320395   2.96813087e-07     -105.339921      0.333762372      166.467859
24.432               0.333763041      166.459019   2.82416781e-07       140.96828      0.666232299     -13.5408675    2.3882974e-07      15.3551167
                  7.18138015e-07      162.368877      0.333762487      166.458979   2.27057698e-07      20.7087789      0.666232619     -13.5408801
                     0.666238366     -13.5410272   2.77918961e-07      2.24795309      0.333762111      166.458996   2.82808657e-07      -120.58443
                  6.86466957e-07      15.7811865      0.666232588     -13.5409065   2.99183328e-07     -104.354078      0.333762379       166.45899
24.448                0.33376303       166.45015   2.83114878e-07      140.855385      0.666232325     -13.5497354   2.38909528e-07      15.7325793
                  7.26332745e-07      161.974526      0.333762496       166.45011    2.2700592e-07      21.1208299      0.666232649     -13.5497479
                     0.666238338     -13.5498933   2.79109888e-07      2.32067933      0.333762113      166.450128   2.84227404e-07     -120.004907
                  6.98057625e-07      16.4404079      0.666232616     -13.5497734   3.01523327e-07     -103.340275      0.333762385      166.450121
24.464                0.33376302       166.44128   2.83824598e-07      140.740612      0.666232351     -13.5586033    2.3898026e-07       16.114677
                  7.34786295e-07      161.566344      0.333762504      166.441241   2.26942339e-07      21.5374899      0.666232678     -13.5586157
                     0.666238311     -13.5587595   2.80325763e-07      2.39493714      0.333762116      166.441259   2.85645153e-07      -119.41277
                  7.10095287e-07      17.1308198      0.666232643     -13.5586404   3.03825275e-07     -102.298032      0.333762392      166.441252
24.48                 0.33376301       166.43241   2.84546205e-07      140.623915      0.666232377     -13.5674711   2.39041565e-07      16.5014608
                  7.43509462e-07      161.143629      0.333762513      166.432372    2.2686657e-07      21.9587923      0.666232708     -13.5674834
                     0.666238283     -13.5676257   2.81567345e-07      2.47077427      0.333762119      166.432391   2.87060316e-07     -118.807751
                  7.22599148e-07      17.8544578       0.66623267     -13.5675074   3.06080745e-07     -101.226924      0.333762399      166.432383
24.496                  0.333763      166.423541   2.85279965e-07      140.505246      0.666232403      -13.576339   2.39093062e-07       16.892981
                  7.52513514e-07      160.705631      0.333762522      166.423503   2.26778225e-07      22.3847694      0.666232737     -13.5763512
                     0.666238256     -13.5764918   2.82835425e-07      2.54824044      0.333762122      166.423523    2.8847118e-07     -118.189581
                  7.35588586e-07      18.6135135      0.666232697     -13.5763744   3.08280687e-07     -100.126586      0.333762407      166.423514
24.512               0.333762991      166.414671   2.86026156e-07      140.384556      0.666232429     -13.5852069   2.39134358e-07      17.2892874
                  7.61810197e-07      160.251552      0.333762531      166.414634   2.26676905e-07       22.815452      0.666232766      -13.585219
                     0.666238229      -13.585358   2.84130824e-07      2.62738749      0.333762125      166.414655   2.89875905e-07     -117.557996
                  7.49082938e-07      19.4103469      0.666232724     -13.5852414   3.10415433e-07     -98.9967286      0.333762414      166.414645
24.528               0.333762982      166.405802   2.86785061e-07      140.261794      0.666232455     -13.5940748   2.39165052e-07      17.6904292
                  7.71411746e-07      159.780541       0.33376254      166.405765   2.26562207e-07      23.2508697      0.666232795     -13.5940868
                     0.666238202     -13.5942242   2.85454399e-07      2.70826945      0.333762128      166.405786   2.91272515e-07     -116.912732
                  7.63101223e-07      20.2474982      0.666232751     -13.5941084   3.12474712e-07     -97.8371423      0.333762421      166.405776
24.544               0.333762974      166.396932   2.87556971e-07      140.136908      0.666232481     -13.6029427    2.3918473e-07       18.096455
                  7.81330881e-07      159.291691      0.333762549      166.396897   2.26433722e-07      23.6910506      0.666232824     -13.6029546
                     0.666238176     -13.6030905   2.86807043e-07      2.79094265      0.333762132      166.396918   2.92658895e-07     -116.253529
                  7.77661793e-07      21.1276997      0.666232778     -13.6029755   3.14447671e-07     -96.6477112      0.333762429      166.396907
24.56                0.333762966      166.388063   2.88342188e-07      140.009842      0.666232507     -13.6118106   2.39192971e-07      18.5074125
                  7.91580806e-07      158.784034      0.333762558      166.388028   2.26291034e-07       24.136021      0.666232852     -13.6118224
                     0.666238149     -13.6119567   2.88189685e-07       2.8754659      0.333762136       166.38805   2.94032784e-07     -115.580134
                  7.92781884e-07       22.053888      0.666232804     -13.6118425    3.1632292e-07     -95.4284229      0.333762436      166.388038
24.576               0.333762959      166.379193    2.8914102e-07      139.880542      0.666232533     -13.6206785   2.39189341e-07      18.9233484
                  8.02175198e-07      158.256538      0.333762568      166.379159   2.26133721e-07      24.5858059      0.666232881     -13.6206901
                     0.666238123     -13.6208229   2.89603293e-07      2.96190056       0.33376214      166.379182   2.95391771e-07     -114.892298
                  8.08477054e-07      23.0292159      0.666232831     -13.6207096   3.18088577e-07     -94.1793795      0.333762444      166.379169
24.592               0.333762952      166.370324   2.89953785e-07      139.748949      0.666232558     -13.6295464   2.39173398e-07      19.3443087
                  8.13128188e-07      157.708098      0.333762577       166.37029   2.25961356e-07      25.0404281      0.666232909     -13.6295579
                     0.666238097     -13.6296892   2.91048879e-07       3.0503107      0.333762144      166.370313   2.96733291e-07     -114.189782
                  8.24760485e-07      24.0570622      0.666232857     -13.6295767   3.19732345e-07     -92.9008085      0.333762452      166.370301
24.608               0.333762945      166.361455   2.90780811e-07      139.615004      0.666232584     -13.6384143   2.39144686e-07      19.7703382
                  8.24454333e-07      157.137538      0.333762587      166.361422   2.25773508e-07      25.4999089      0.666232937     -13.6384257
                     0.666238071     -13.6385555   2.92527497e-07      3.14076327      0.333762149      166.361445   2.98054617e-07     -113.472354
                  8.41642117e-07      25.1410411      0.666232883     -13.6384437    3.2124159e-07     -91.5930735       0.33376246      166.361432
24.624               0.333762939      166.352585   2.91622435e-07      139.478643      0.666232609     -13.6472822   2.39102744e-07      20.2014805
                  8.36168573e-07      156.543597      0.333762596      166.352553   2.25569739e-07      25.9642674      0.666232965     -13.6472935
                     0.666238046     -13.6474217   2.94040248e-07      3.23332827      0.333762153      166.352577   2.99352863e-07     -112.739793
                  8.59127587e-07      26.2850075       0.66623291     -13.6473108   3.22603449e-07     -90.2566839      0.333762468      166.352563
24.64                0.333762933      166.343716   2.92479002e-07      139.339803      0.666232635     -13.6561501   2.39047098e-07      20.6377779
                  8.48286174e-07       155.92493      0.333762606      166.343684   2.25349609e-07      26.4335206      0.666232993     -13.6561613
                      0.66623802      -13.656288   2.95588281e-07      3.32807886      0.333762158      166.343709   3.00624975e-07     -111.991891
                   8.7721694e-07      27.4930592      0.666232936     -13.6561779   3.23804946e-07     -88.8923042      0.333762477      166.343695
24.656               0.333762927      166.334847   2.93350871e-07      139.198418       0.66623266      -13.665018   2.38977263e-07      21.0792714
                   8.6082265e-07      155.280097      0.333762616      166.334816   2.25112673e-07      26.9076835      0.666233021     -13.6650291
                     0.666237995     -13.6651543   2.97172796e-07      3.42509161      0.333762163      166.334841   3.01867732e-07     -111.228454
                  8.95903069e-07      28.7695336      0.666232962      -13.665045   3.24833135e-07     -87.5007623      0.333762485      166.334826
24.672               0.333762922      166.325977   2.94238408e-07      139.054419      0.666232686     -13.6738859   2.38892748e-07      21.5260005
                  8.73793666e-07      154.607561      0.333762626      166.325947   2.24858483e-07      27.3867685      0.666233049     -13.6738969
                      0.66623797     -13.6740207    2.9879505e-07      3.52444666      0.333762169      166.325973   3.03077746e-07     -110.449304
                  9.15169864e-07      30.1189964      0.666232988     -13.6739121   3.25675248e-07     -86.0830554      0.333762493      166.325957
24.688               0.333762917      166.317108   2.95141992e-07      138.907734      0.666232711     -13.6827538   2.38793049e-07      21.9780029
                  8.87214904e-07      153.905675      0.333762635      166.317079   2.24586587e-07      27.8707859      0.666233076     -13.6827647
                     0.666237945      -13.682887   3.00456353e-07      3.62622796      0.333762174      166.317105   3.04251461e-07      -109.65428
                  9.34990016e-07      31.5462208      0.666233013     -13.6827793    3.2631887e-07      -84.640355      0.333762502      166.317089
24.704               0.333762913      166.308239   2.96062012e-07       138.75829      0.666232736     -13.6916217   2.38677655e-07      22.4353148
                  9.01101905e-07      153.172682      0.333762645       166.30821   2.24296533e-07      28.3597432      0.666233104     -13.6916325
                      0.66623792     -13.6917533   3.02158079e-07      3.73052345       0.33376218      166.308236   3.05385153e-07     -108.843243
                  9.55322478e-07      33.0561535      0.666233039     -13.6916464    3.2675211e-07     -83.1740095       0.33376251       166.30822
24.72                0.333762909       166.29937    2.9699887e-07       138.60601      0.666232761     -13.7004897   2.38546046e-07      22.8979704
                  9.15469861e-07      152.406701      0.333762655      166.299342   2.23987866e-07      28.8536455      0.666233131     -13.7005003
                     0.666237895     -13.7006197   3.03901664e-07      3.83742533      0.333762186      166.299368    3.0647494e-07     -108.016076
                  9.76109545e-07      34.6538648      0.666233065     -13.7005136     3.269638e-07      -81.685544      0.333762519      166.299352
24.736               0.333762905      166.290501   2.97952978e-07      138.450816      0.666232786     -13.7093576   2.38397692e-07      23.3660019
                  9.30333357e-07      151.605725      0.333762666      166.290473   2.23660129e-07       29.352495      0.666233158     -13.7093681
                     0.666237871     -13.7094861   3.05688614e-07      3.94703034      0.333762192        166.2905   3.07516778e-07     -107.172686
                  9.97273601e-07      36.3444781       0.66623309     -13.7093807   3.26943676e-07     -80.1766577      0.333762528      166.290483
24.752               0.333762902      166.281632   2.98924762e-07      138.292624      0.666232811     -13.7182255   2.38232056e-07      23.8394393
                  9.45706064e-07      150.767609      0.333762676      166.281605   2.23312867e-07      29.8562912      0.666233185     -13.7182359
                     0.666237846     -13.7183524   3.07520503e-07      4.05943998      0.333762198      166.281632   3.08506475e-07     -106.313007
                  1.01871356e-06      38.1330745      0.666233116     -13.7182479   3.26682578e-07     -78.6492188      0.333762537      166.281615
24.768               0.333762899      166.272762   2.99914661e-07      138.131351      0.666232836     -13.7270934   2.38048593e-07      24.3183105
                  9.61600343e-07      149.890066      0.333762686      166.272737   2.22945624e-07      30.3650303      0.666233212     -13.7271037
                     0.666237822     -13.7272188   3.09398985e-07      4.17476085      0.333762205      166.272764   3.09439694e-07     -105.437004
                  1.04030117e-06      40.0245685      0.666233141     -13.7271151   3.26172629e-07     -77.1052549      0.333762546      166.272747
24.784               0.333762896      166.263893   3.00923125e-07      137.966907      0.666232861     -13.7359613   2.37846752e-07      24.8026409
                  9.78026785e-07      148.970661      0.333762696      166.263868   2.22557945e-07      30.8787057      0.666233239     -13.7359715