! TOUCHSTONE file generated by CST MICROWAVE STUDIO
! Date and time: Tue Mar 11 16:53:02 2025
! Project name: Sheet_R376ab_Lo4.cst
! Parameters = {Dport=0; Dspace=5.76923; Lamb=11.5385; Rs=376; Xs=0; a=2.88462; b=2.88462; phi=0; theta=0}
! Header version: 2024
! Port assignment regex: !\s*Touchstone port\s*([0-9]+)\s*=\s*(CST MWS port|CST DES external port|CST DES block port)\s*(.+)\s* \(\"(.*)\"\)(\s*mode\s*([0-9]+))?.*
! Touchstone port assignment:
! Touchstone port 1 = CST MWS port Zmax ("") mode 1
! Touchstone port 2 = CST MWS port Zmax ("") mode 2
! Touchstone port 3 = CST MWS port Zmin ("") mode 1
! Touchstone port 4 = CST MWS port Zmin ("") mode 2
# GHz S MA R 376.73
20                   0.333767793      179.999988   5.78576327e-07     -65.7478992      0.666236156     -138.557675   5.81450911e-07     -59.0513061
                  1.28527652e-06     -68.5885649      0.333767698      179.999923   2.62260249e-07     -89.6853923      0.666236703     -138.557679
                     0.666239533     -138.557499    1.1723863e-07      127.728418       0.33376704     -97.1149071    4.4432114e-07      46.1031517
                  5.50200937e-07     -30.0673717      0.666238185     -138.557795   3.61971097e-07      67.6928567      0.333767441     -97.1151979
20.02                0.333767789      179.999991   5.83936189e-07     -66.3519677       0.66623835      -138.69621   5.86207164e-07     -59.3087903
                  1.30115062e-06     -69.6032764      0.333767678      179.999925   2.62588805e-07     -89.9480829      0.666239251      -138.69621
                     0.666241535        -138.696   1.17372125e-07        127.7015      0.333809867      -97.388268   4.45785209e-07      46.1220149
                  5.47312222e-07     -29.4962173      0.666240696     -138.696336   3.62717252e-07      67.9086591      0.333810341     -97.3885484
20.04                0.333767786      179.999995   5.89344403e-07     -66.9679816       0.66624051     -138.834745   5.91043251e-07     -59.5704173
                  1.31705059e-06     -70.6436484      0.333767657      179.999926   2.62914074e-07     -90.2121591       0.66624176     -138.834743
                     0.666243505     -138.834503    1.1750584e-07      127.674422      0.333852111     -97.6616986   4.47259086e-07      46.1411323
                  5.44405874e-07     -28.9300529      0.666243169     -138.834878   3.63460541e-07      68.1256725      0.333852657     -97.6619688
20.06                0.333767783      179.999998   5.94798885e-07     -67.5961868      0.666242636     -138.973281   5.95961012e-07      -59.836294
                  1.33294728e-06     -71.7100761      0.333767637      179.999928   2.63235979e-07     -90.4776253      0.666244231     -138.973275
                     0.666245444     -138.973006   1.17639775e-07      127.647182      0.333893774     -97.9351984   4.48742873e-07      46.1605072
                  5.41483533e-07     -28.3688856      0.666245604     -138.973419   3.64200848e-07      68.3439011      0.333894393     -97.9354585
20.08                0.333767779     -179.999998   6.00297301e-07     -68.2368293      0.666244729     -139.111818   6.00962329e-07      -60.106531
                   1.3488088e-06       -72.80291      0.333767616      179.999929   2.63554439e-07     -90.7444858      0.666246664     -139.111809
                     0.666247352     -139.111511    1.1777393e-07      127.619778       0.33393486     -98.2087665   4.50236673e-07      46.1801432
                  5.38546795e-07     -27.8127192      0.666248002     -139.111962   3.64938057e-07      68.5633489       0.33393555     -98.2090167
20.1                 0.333767776     -179.999995   6.05837056e-07     -68.8901541      0.666246788     -139.250355   6.06049137e-07     -60.3812425
                  1.36460044e-06     -73.9224492      0.333767596      179.999931   2.63869377e-07     -91.0127448       0.66624906     -139.250343
                     0.666249229     -139.250016   1.17908304e-07      127.592211      0.333975372     -98.4824024   4.51740592e-07       46.200044
                  5.35597215e-07     -27.2615538      0.666250362     -139.250505   3.65672051e-07      68.7840201      0.333976133     -98.4826428
20.12                0.333767773     -179.999991   6.11415275e-07     -69.5564049      0.666248815     -139.388893   6.11223417e-07     -60.6605468
                  1.38028463e-06     -75.0689338      0.333767575      179.999932   2.64180711e-07     -91.2824062      0.666251419     -139.388877
                     0.666251076     -139.388523   1.18042898e-07      127.564478      0.334015312     -98.7561053   4.53254735e-07      46.2202132
                  5.32636304e-07     -26.7153864      0.666252686     -139.389048   3.66402709e-07      69.0059185      0.334016143     -98.7563361
20.14                0.333767769     -179.999988   6.17028787e-07     -70.2358233      0.666250809     -139.527431   6.16487201e-07      -60.944566
                  1.39582094e-06     -76.2425376      0.333767555      179.999934   2.64488361e-07     -91.5534741      0.666253741     -139.527413
                     0.666252893      -139.52703   1.18177712e-07      127.536577      0.334054683     -99.0298745    4.5477921e-07      46.2406546
                   5.2966553e-07     -26.1742108      0.666254972     -139.527592    3.6712991e-07       69.229048      0.334055585     -99.0300958
20.16                0.333767766     -179.999984   6.22674112e-07     -70.9286476       0.66625277     -139.665969   6.21842571e-07     -61.2334264
                  1.41116606e-06     -77.4433598      0.333767535      179.999935   2.64792244e-07     -91.8259524      0.666256026     -139.665948
                      0.66625468     -139.665539   1.18312744e-07      127.508508      0.334093488     -99.3037094   4.56314127e-07      46.2613719
                  5.26686319e-07     -25.6380179      0.666257223     -139.666136    3.6785353e-07      69.4534124       0.33409446     -99.3039213
20.18                0.333767763     -179.999981   6.28347436e-07      -71.635112      0.666254699     -139.804508   6.27291661e-07     -61.5272589
                  1.42627389e-06     -78.6714173      0.333767514      179.999937   2.65092277e-07     -92.0998446      0.666258275     -139.804485
                     0.666256437     -139.804048   1.18447996e-07      127.480269      0.334131731     -99.5776094   4.57859596e-07      46.2823692
                  5.23700051e-07     -25.1067957      0.666259437     -139.804681   3.68573444e-07      69.6790152      0.334132772      -99.577812
20.2                 0.333767759     -179.999977   6.34044606e-07     -72.3554458      0.666256596     -139.943048   6.32836656e-07     -61.8261986
                  1.44109563e-06     -79.9266359      0.333767494      179.999938   2.65388378e-07     -92.3751546      0.666260487     -139.943022
                     0.666258164     -139.942558   1.18583466e-07      127.451859      0.334169413     -99.8515736    4.5941573e-07      46.3036502
                  5.20708062e-07     -24.5805294      0.666261616     -139.943226   3.69289524e-07      69.9058599      0.334170524     -99.8517671
20.22                0.333767756     -179.999974   6.39761104e-07     -73.0898721      0.666258462     -140.081588   6.38479794e-07     -62.1303856
                  1.45557997e-06      -81.208843      0.333767474       179.99994   2.65680462e-07     -92.6518858      0.666262665      -140.08156
                     0.666259863     -140.081069   1.18719156e-07      127.423276      0.334206539     -100.125602   4.60982643e-07       46.325219
                  5.17711644e-07     -24.0592017       0.66626376     -140.081771   3.70001642e-07        70.13395      0.334207718     -100.125786
20.24                0.333767753      -179.99997   6.45492035e-07     -73.8386065      0.666260297     -140.220128   6.44223368e-07     -62.4399646
                  1.46967327e-06     -82.5177588      0.333767453      179.999941   2.65968442e-07     -92.9300416      0.666264806     -140.220098
                     0.666261532     -140.219581   1.18855063e-07      127.394518      0.334243112     -100.399692    4.6256045e-07      46.3470797
                  5.14712046e-07     -23.5427926      0.666265868     -140.220317   3.70709667e-07      70.3632888      0.334244358     -100.399868
20.26                0.333767749     -179.999967   6.51232111e-07     -74.6018559        0.6662621     -140.358669   6.50069723e-07     -62.7550855
                  1.48331991e-06     -83.8529895      0.333767433      179.999943   2.66252234e-07     -93.2096252      0.666266913     -140.358636
                     0.666263173     -140.358094   1.18991189e-07      127.365585      0.334279133     -100.673846    4.6414927e-07      46.3692365
                  5.11710473e-07       -23.03128      0.666267941     -140.358864   3.71413466e-07      70.5938793      0.334280447     -100.674013
20.28                0.333767746     -179.999964   6.56975637e-07     -75.3798174      0.666263872     -140.497211   6.56021257e-07     -63.0759036
                  1.49646257e-06     -85.2140196      0.333767413      179.999944   2.66531751e-07     -93.4906398      0.666268985     -140.497176
                     0.666264785     -140.496608   1.19127533e-07      127.336475      0.334314607     -100.948061   4.65749221e-07      46.3916935
                  5.08708084e-07     -22.5246395       0.66626998     -140.497411   3.72112904e-07      70.8257248      0.334315987     -100.948219
20.3                 0.333767742      -179.99996   6.62716498e-07     -76.1726765      0.666265614     -140.635753   6.62080423e-07     -63.4025796
                  1.50904271e-06     -86.6002063      0.333767392      179.999946   2.66806905e-07     -93.7730884      0.666271022     -140.635716
                     0.666266369     -140.635122   1.19264095e-07      127.307186      0.334349535     -101.222337   4.67360425e-07      46.4144552
                  5.05705999e-07     -22.0228445      0.666271984     -140.635958   3.72807845e-07       71.058828      0.334350983     -101.222487
20.32                0.333767739     -179.999957   6.68448144e-07     -76.9806057      0.666267326     -140.774295   6.68249729e-07     -63.7352799
                  1.52100102e-06     -88.0107736      0.333767372      179.999947   2.67077607e-07     -94.0569739      0.666273025     -140.774256
                     0.666267926     -140.773638   1.19400874e-07      127.277717      0.334383923     -101.496673   4.68983003e-07      46.4375258
                  5.02705291e-07     -21.5258665      0.666273955     -140.774505    3.7349815e-07      71.2931917      0.334385436     -101.496815
20.34                0.333767736     -179.999953   6.74163582e-07     -77.8037626      0.666269008     -140.912838   6.74531734e-07     -64.0741768
                  1.53227799e-06     -89.4448091      0.333767352      179.999949    2.6734377e-07      -94.342299      0.666274994     -140.912797
                     0.666269454     -140.912154    1.1953787e-07      127.248067      0.334417771     -101.771069   4.70617081e-07      46.4609098
                  4.99706993e-07      -21.033675      0.666275892     -140.913053   3.74183681e-07      71.5288186       0.33441935     -101.771202
20.36                0.333767732      -179.99995   6.79855367e-07     -78.6422888       0.66627066     -141.051381   6.80929052e-07     -64.4194488
                  1.54281456e-06     -90.9012606      0.333767332       179.99995   2.67605302e-07     -94.6290664      0.666276929     -141.051338
                     0.666270956     -141.050671   1.19675084e-07      127.218233      0.334451085     -102.045524   4.72262786e-07      46.4846117
                  4.96712096e-07      -20.546238      0.666277795     -141.051602   3.74864294e-07      71.7657113      0.334452728     -102.045649
20.38                0.333767729     -179.999947   6.85515597e-07     -79.4963074      0.666272282     -141.189924    6.8744435e-07     -64.7712808
                   1.5525527e-06     -92.3789355      0.333767311      179.999952   2.67862115e-07     -94.9172784      0.666278831      -141.18988
                     0.666272429     -141.189189   1.19812514e-07      127.188214      0.334483865     -102.320038   4.73920244e-07      46.5086363
                   4.9372155e-07     -20.0635216      0.666279665     -141.190151   3.75539846e-07       72.003872      0.334485574     -102.320155
20.4                 0.333767725     -179.999943   6.91135907e-07     -80.3659216      0.666273876     -141.328468   6.94080345e-07     -65.1298643
                   1.5614362e-06     -93.8765019      0.333767291      179.999954   2.68114116e-07     -95.2069375        0.6662807     -141.328423
                     0.666273876     -141.327708   1.19950161e-07      127.158009      0.334516117     -102.594609   4.75589588e-07      46.5329881
                  4.90736264e-07     -19.5854904      0.666281503       -141.3287   3.76210191e-07       72.243303      0.334517889     -102.594719
20.42                0.333767722      -179.99994   6.96707469e-07     -81.2512126       0.66627544     -141.467012   7.00839806e-07      -65.495398
                   1.5694114e-06     -95.3924909      0.333767271      179.999955   2.68361214e-07     -95.4980457      0.666282536     -141.466966
                     0.666275297     -141.466228   1.20088023e-07      127.127615      0.334547842     -102.869238   4.77270948e-07       46.557672
                   4.8775711e-07     -19.1121075      0.666283308     -141.467249   3.76875183e-07      72.4840063      0.334549678     -102.869339
20.44                0.333767718     -179.999937   7.02220999e-07     -82.1522377      0.666276976     -141.605557   7.07725549e-07     -65.8680873
                  1.57642789e-06     -96.9253022      0.333767251      179.999957   2.68603317e-07     -95.7906051      0.666284339     -141.605509
                     0.666276691     -141.604748   1.20226102e-07      127.097032      0.334579044     -103.143923   4.78964459e-07      46.5826929
                  4.84784917e-07     -18.6433349       0.66628508     -141.605799   3.77534672e-07       72.725984      0.334580943     -103.144017
20.46                0.333767715     -179.999934   7.07666759e-07      -83.069028      0.666278483     -141.744102   7.14740436e-07     -66.2481454
                  1.58243933e-06     -98.4732108      0.333767231      179.999958   2.68840332e-07     -96.0846175       0.66628611     -141.744053
                     0.666278058     -141.743269   1.20364396e-07      127.066258      0.334609726     -103.418664   4.80670258e-07      46.6080556
                  4.81820479e-07     -18.1791332      0.666286821     -141.744349   3.78188507e-07      72.9692376      0.334611688      -103.41875
20.48                0.333767711      -179.99993   7.13034572e-07     -84.0015867      0.666279962     -141.882648   7.21887376e-07     -66.6357932
                  1.58740411e-06     -100.034376       0.33376721       179.99996   2.69072165e-07     -96.3800847      0.666287849     -141.882597
                       0.6662794     -141.881791   1.20502905e-07      127.035291      0.334639892      -103.69346   4.82388482e-07      46.6337654
                  4.78864551e-07     -17.7194617       0.66628853       -141.8829   3.78836535e-07      73.2137689      0.334641915     -103.693539
20.5                 0.333767708     -179.999927   7.18313837e-07     -84.9498871      0.666281413     -142.021194   7.29169317e-07     -67.0312595
                  1.59128607e-06     -101.606855       0.33376719      179.999961   2.69298722e-07     -96.6770082      0.666289557     -142.021142
                     0.666280716     -142.020314    1.2064163e-07       127.00413      0.334669544     -103.968311   4.84119272e-07      46.6598273
                  4.75917855e-07     -17.2642788      0.666290208     -142.021451   3.79478603e-07      73.4595792      0.334671628     -103.968383
20.52                0.333767704     -179.999924   7.23493553e-07     -85.9138699      0.666282837      -142.15974   7.36589243e-07     -67.4347816
                  1.59405512e-06     -103.188612       0.33376717      179.999963    2.6951991e-07     -96.9753894      0.666291233     -142.159687
                     0.666282006     -142.158837   1.20780568e-07      126.972772      0.334698685     -104.243216   4.85862771e-07      46.6862465
                  4.72981073e-07      -16.813542      0.666291854     -142.160002   3.80114553e-07      73.7066699      0.334700831     -104.243281
20.54                  0.3337677     -179.999921    7.2856234e-07      -86.893442      0.666284233     -142.298286   7.44150175e-07     -67.8466051
                  1.59568772e-06     -104.777538       0.33376715      179.999964   2.69735631e-07     -97.2752295      0.666292877     -142.298233
                     0.666283271     -142.297362   1.20919721e-07      126.941216      0.334727319     -104.518174   4.87619123e-07      46.7130285
                  4.70054856e-07     -16.3672078      0.666293469     -142.298553   3.80744229e-07      73.9550419      0.334729525     -104.518232
20.56                0.333767697     -179.999917   7.33508478e-07     -87.8884739      0.666285602     -142.436833   7.51855159e-07     -68.2669851
                  1.59616737e-06     -106.371465       0.33376713      179.999966   2.69945792e-07     -97.5765295      0.666294491     -142.436779
                     0.666284511     -142.435887   1.21059087e-07      126.909461      0.334755449     -104.793185   4.89388475e-07      46.7401786
                   4.6713982e-07     -15.9252317      0.666295054     -142.437105    3.8136747e-07      74.2046963      0.334757715     -104.793236
20.58                0.333767693     -179.999914   7.38319945e-07     -88.8987983      0.666286944     -142.575381   7.59707264e-07     -68.6961853
                   1.5954849e-06     -107.968185       0.33376711      179.999967   2.70150296e-07     -97.8792903      0.666296075     -142.575326
                     0.666285726     -142.574412   1.21198667e-07      126.877504      0.334783078     -105.068249   4.91170977e-07      46.7677025
                  4.64236549e-07     -15.4875689      0.666296609     -142.575657   3.81984115e-07      74.4556337      0.334785403     -105.068293
20.6                  0.33376769     -179.999911   7.42984459e-07      -89.924208      0.666288259     -142.713928   7.67709578e-07     -69.1344796
                  1.59363863e-06     -109.565466       0.33376709      179.999969   2.70349047e-07     -98.1835127      0.666297628     -142.713873
                     0.666286917     -142.712939   1.21338459e-07      126.845344      0.334810209     -105.343364    4.9296678e-07      46.7956057
                  4.61345594e-07     -15.0541737      0.666298133     -142.714209   3.82594002e-07      74.7078547      0.334812593     -105.343401
20.62                0.333767686     -179.999908   7.47489531e-07     -90.9644543      0.666289548     -142.852476   7.75865194e-07     -69.5821514
                  1.59063447e-06     -111.161078       0.33376707       179.99997   2.70541947e-07      -98.489197       0.66629915      -142.85242
                     0.666288083     -142.851466   1.21478464e-07      126.812979      0.334836846      -105.61853   4.94776039e-07       46.823894
                  4.58467476e-07     -14.6249996      0.666299628     -142.852762   3.83196966e-07      74.9613597      0.334839288     -105.618561
20.64                0.333767682     -179.999905   7.51822526e-07     -92.0192457      0.666290811     -142.991024   7.84177206e-07     -70.0394945
                   1.5864858e-06     -112.752805       0.33376705      179.999972     2.707289e-07     -98.7963437      0.666300643     -142.990968
                     0.666289225     -142.989994   1.21618681e-07      126.780407      0.334862991     -105.893746   4.96598909e-07      46.8525734
                  4.55602688e-07     -14.1999999      0.666301093     -142.991315   3.83792841e-07      75.2161488      0.334865491     -105.893771
20.66                0.333767679     -179.999901   7.55970723e-07     -93.0882465      0.666292048     -143.129573   7.92648698e-07     -70.5068134
                  1.58121326e-06     -114.338469       0.33376703      179.999973   2.70909808e-07      -99.104953      0.666302107     -143.129516
                     0.666290343     -143.128522    1.2175911e-07      126.747626      0.334888648     -106.169012    4.9843555e-07      46.8816497
                   4.5275169e-07     -13.7791273      0.666302528     -143.129868   3.84381459e-07      75.4722219      0.334891206     -106.169031
20.68                0.333767675     -179.999898   7.59921387e-07     -94.1710758      0.666293259     -143.268122   8.01282734e-07     -70.9844232
                  1.57484441e-06     -115.915944       0.33376701      179.999975   2.71084573e-07     -99.4150247      0.666303541     -143.268065
                     0.666291437     -143.267052    1.2189975e-07      126.714636      0.334913821     -106.444327   5.00286122e-07      46.9111291
                  4.49914918e-07     -13.3623342      0.666303935     -143.268422   3.84962651e-07      75.7295789      0.334916435      -106.44434
20.7                 0.333767671     -179.999895   7.63661846e-07     -95.2673068      0.666294445     -143.406671   8.10082342e-07     -71.4726505
                  1.56741324e-06     -117.483177       0.33376699      179.999976   2.71253096e-07     -99.7265587      0.666304946     -143.406614
                     0.666292509     -143.405582     1.220406e-07      126.681432      0.334938512     -106.719691   5.02150791e-07      46.9410177
                  4.47092779e-07     -12.9495726      0.666305313     -143.406976   3.85536247e-07      75.9882192      0.334941182     -106.719698
20.72                0.333767667     -179.999892    7.6717957e-07     -96.3764663      0.666295606     -143.545221   8.19050504e-07     -71.9718334
                  1.55895969e-06     -119.038203       0.33376697      179.999978   2.71415281e-07     -100.039555      0.666306322     -143.545164
                     0.666293556     -143.544112   1.22181661e-07      126.648015      0.334962724     -106.995103   5.04029722e-07       46.971322
                  4.44285654e-07      -12.540794      0.666306663      -143.54553   3.86102073e-07      76.2481424       0.33496545     -106.995104
20.74                0.333767664     -179.999889   7.70462258e-07     -97.4980346      0.666296741     -143.683771   8.28190136e-07     -72.4823219
                  1.54952891e-06     -120.579155       0.33376695       179.99998   2.71571027e-07     -100.354012       0.66630767     -143.683713
                     0.666294581     -143.682643   1.22322931e-07      126.614381      0.334986461     -107.270563   5.05923084e-07      47.0020483
                  4.41493899e-07     -12.1359501      0.666307984     -143.684084   3.86659957e-07      76.5093473      0.334989242     -107.270557
20.76                 0.33376766     -179.999886   7.73497925e-07     -98.6314457      0.666297852     -143.822321   8.37504073e-07     -73.0044781
                  1.53917062e-06     -122.104283       0.33376693      179.999981   2.71720236e-07     -100.669929       0.66630899     -143.822264
                     0.666295583     -143.821175    1.2246441e-07      126.580529      0.335009727     -107.546069    5.0783105e-07      47.0332033
                  4.38717846e-07     -11.7349921      0.666309278     -143.822639   3.87209724e-07      76.7718331      0.335012562     -107.546058
20.78                0.333767656     -179.999883   7.76274996e-07     -99.7760876      0.666298939     -143.960871   8.46995048e-07     -73.5386767
                  1.52793834e-06     -123.611956       0.33376691      179.999983    2.7186281e-07     -100.987306      0.666310282     -143.960814
                     0.666296562     -143.959708   1.22606098e-07      126.546458      0.335032524     -107.821622   5.09753794e-07      47.0647936
                  4.35957803e-07     -11.3378711      0.666310543     -143.961194   3.87751196e-07      77.0355984      0.335035413     -107.821605
20.8                 0.333767652      -179.99988   7.78782399e-07     -100.931304      0.666300001     -144.099422   8.56665669e-07     -74.0853051
                  1.51588866e-06     -125.100674       0.33376689      179.999984   2.71998649e-07     -101.306142      0.666311545     -144.099365
                      0.66629752     -144.098241   1.22747994e-07      126.512164      0.335054855      -108.09722   5.11691494e-07      47.0968262
                  4.33214056e-07     -10.9445382      0.666311781     -144.099749   3.88284197e-07      77.3006416      0.335057797     -108.097198
20.82                0.333767649     -179.999877   7.81009656e-07     -102.096395      0.666301039     -144.237973   8.66518393e-07     -74.6447637
                  1.50308041e-06     -126.569074       0.33376687      179.999986   2.72127655e-07     -101.626434      0.666312782     -144.237916
                     0.666298454     -144.236775   1.22890097e-07      126.477646      0.335076725     -108.372864    5.1364433e-07      47.1293079
                  4.30486868e-07     -10.5549445      0.666312992     -144.238304   3.88808546e-07       77.566961       0.33507972     -108.372836
20.84                0.333767645     -179.999874   7.82946975e-07      -103.27062      0.666302054     -144.376524   8.76555499e-07     -75.2174661
                  1.48957397e-06     -128.015933      0.333766851      179.999987   2.72249728e-07     -101.948181      0.666313991     -144.376468
                     0.666299368      -144.37531   1.23032408e-07      126.442902      0.335098135     -108.648552   5.15612485e-07      47.1622458
                  4.27776483e-07      -10.169041      0.666314177      -144.37686   3.89324065e-07      77.8345547      0.335101183     -108.648519
20.86                0.333767641     -179.999871   7.84585346e-07     -104.453197      0.666303044     -144.515076    8.8677906e-07     -75.8038393
                  1.47543054e-06     -129.440164      0.333766831      179.999989    2.7236477e-07     -102.271382      0.666315173      -144.51502
                     0.666300259     -144.513845   1.23174924e-07       126.40793      0.335119091     -108.924284   5.17596146e-07      47.1956474
                  4.25083124e-07     -9.78677859      0.666315334     -144.515415   3.89830571e-07      78.1034203       0.33512219     -108.924245
20.88                0.333767637     -179.999868   7.85916618e-07      -105.64331      0.666304012     -144.653628   8.97190902e-07      -76.404324
                  1.46071144e-06     -130.840825      0.333766811       179.99999    2.7247268e-07     -102.596035      0.666316329     -144.653572
                     0.666301129      -144.65238   1.23317646e-07      126.372728      0.335139594     -109.200059   5.19595503e-07      47.2295198
                  4.22406994e-07      -9.4081085      0.666316465     -144.653971   3.90327882e-07      78.3735555      0.335142744     -109.200016
20.9                 0.333767633     -179.999865   7.86933585e-07     -106.840108      0.666304956      -144.79218   9.07792571e-07     -77.0193742
                  1.44547752e-06     -132.217109      0.333766791      179.999992   2.72573362e-07     -102.922136      0.666317458     -144.792125
                     0.666301977     -144.790917   1.23460573e-07      126.337294      0.335159648     -109.475878   5.21610747e-07      47.2638708
                  4.19748279e-07     -9.03298191       0.66631757     -144.792528   3.90815814e-07      78.6449575      0.335162848     -109.475829
20.92                0.333767629     -179.999862   7.87630059e-07      -108.04271      0.666305878     -144.930732    9.1858529e-07     -77.6494579
                  1.42978864e-06     -133.568343      0.333766771      179.999993   2.72666715e-07     -103.249685      0.666318561     -144.930678
                     0.666302805     -144.929454   1.23603705e-07      126.301625      0.335179256     -109.751739   5.23642074e-07      47.2987079
                  4.17107146e-07     -8.66135014      0.666318649     -144.931084   3.91294182e-07      78.9176233      0.335182507     -109.751685
20.94                0.333767625     -179.999859   7.88000933e-07     -109.250208      0.666306777     -145.069285   9.29569912e-07     -78.2950565
                  1.41370311e-06     -134.893983      0.333766752      179.999995   2.72752642e-07     -103.578677      0.666319638     -145.069231
                     0.666303611     -145.067991    1.2374704e-07       126.26572      0.335198422     -110.027641   5.25689683e-07      47.3340391
                  4.14483746e-07     -8.29316468      0.666319702     -145.069641     3.917628e-07      79.1915497      0.335201722     -110.027583
20.96                0.333767621     -179.999856    7.8804224e-07     -110.461674      0.666307654     -145.207838    9.4074687e-07     -78.9566648
                  1.39727734e-06      -136.19361      0.333766732      179.999996   2.72831044e-07     -103.909111      0.666320689     -145.207784
                     0.666304398     -145.206529   1.23890578e-07      126.229576      0.335217149     -110.303585   5.27753777e-07      47.3698724
                  4.11878212e-07     -7.92837722       0.66632073     -145.208198   3.92221483e-07      79.4667334      0.335220498     -110.303523
20.98                0.333767617     -179.999853   7.87751193e-07     -111.676159      0.666308508     -145.346391   9.52116122e-07      -79.634791
                  1.38056551e-06     -137.466918      0.333766712      179.999998   2.72901823e-07     -104.240983      0.666321715     -145.346338