! TOUCHSTONE file generated by CST MICROWAVE STUDIO
! Date and time: Tue Mar 11 15:59:49 2025
! Project name: Sheet_R376ab_Lo4.cst
! Parameters = {Dport=-5.69231; Dspace=5.76923; Lamb=11.5385; Rs=376; Xs=0; a=2.88462; b=2.88462; phi=0; theta=0}
! Header version: 2024
! Port assignment regex: !\s*Touchstone port\s*([0-9]+)\s*=\s*(CST MWS port|CST DES external port|CST DES block port)\s*(.+)\s* \(\"(.*)\"\)(\s*mode\s*([0-9]+))?.*
! Touchstone port assignment:
! Touchstone port 1 = CST MWS port Zmax ("") mode 1
! Touchstone port 2 = CST MWS port Zmax ("") mode 2
! Touchstone port 3 = CST MWS port Zmin ("") mode 1
! Touchstone port 4 = CST MWS port Zmin ("") mode 2
# GHz S MA R 376.73
20                   0.333762692     -179.998837   1.33924862e-06     -93.0950772       0.66623383     -1.84816009   1.24683712e-06      49.5690014
                  1.23714923e-06     -89.8388352      0.333762077     -179.999126   1.71201432e-06      98.4321254      0.666238038     -1.84769223
                      0.66623794     -1.84778037   1.89693478e-06      101.621228      0.333762654      176.306216   2.37470929e-06      -103.38372
                  1.84405069e-06      96.8326303      0.666239437     -1.84761524   1.67739953e-06     -129.175567      0.333767138      176.304563
20.02                0.333762691     -179.998837   1.33777967e-06     -93.0784211      0.666233945     -1.84999882   1.24548979e-06      49.5675992
                  1.23581608e-06     -89.8271548      0.333762075     -179.999125   1.71065923e-06      98.4260124       0.66623812     -1.84953196
                     0.666237951     -1.84962163   1.89507629e-06      101.592631      0.333762769      176.302541   2.37168371e-06     -103.425793
                  1.84251476e-06       96.790004      0.666239432     -1.84945672   1.67524824e-06      -129.21345      0.333767253       176.30089
20.04                 0.33376269     -179.998836   1.33630654e-06     -93.0616743      0.666234058     -1.85183757   1.24413796e-06      49.5661867
                  1.23447916e-06     -89.8154142      0.333762073     -179.999124   1.70929913e-06      98.4198605      0.666238201      -1.8513717
                     0.666237962      -1.8514629    1.8932108e-06       101.56388      0.333762883      176.298866   2.36864767e-06     -103.468057
                  1.84097296e-06      96.7471545      0.666239426      -1.8512982   1.67309043e-06      -129.25149      0.333767367      176.297217
20.06                0.333762688     -179.998836   1.33482921e-06     -93.0448361      0.666234171     -1.85367633   1.24278163e-06      49.5647636
                  1.23313845e-06     -89.8036129      0.333762071     -179.999124     1.707934e-06      98.4136694      0.666238282     -1.85321146
                     0.666237973     -1.85330417   1.89133829e-06      101.534973      0.333762997       176.29519   2.36560111e-06     -103.510514
                  1.83942524e-06      96.7040801      0.666239421      -1.8531397   1.67092607e-06     -129.289688       0.33376748      176.293545
20.08                0.333762687     -179.998836   1.33334766e-06     -93.0279058      0.666234284     -1.85551511   1.24142076e-06        49.56333
                  1.23179392e-06     -89.7917503       0.33376207     -179.999123   1.70656379e-06      98.4074388      0.666238363     -1.85505123
                     0.666237984     -1.85514544   1.88945869e-06      101.505909       0.33376311      176.291515   2.36254398e-06     -103.553166
                  1.83787156e-06       96.660779      0.666239415      -1.8549812   1.66875514e-06     -129.328044      0.333767593      176.289872
20.1                 0.333762686     -179.998836   1.33186187e-06     -93.0108825      0.666234396      -1.8573539   1.24005533e-06      49.5618857
                  1.23044557e-06     -89.7798261      0.333762068     -179.999123   1.70518848e-06      98.4011685      0.666238443     -1.85689102
                     0.666237995     -1.85698673   1.88757197e-06      101.476687      0.333763224       176.28784   2.35947621e-06     -103.596013
                   1.8363119e-06      96.6172497       0.66623941      -1.8568227    1.6665776e-06      -129.36656      0.333767706      176.286199
20.12                0.333762685     -179.998836   1.33037182e-06     -92.9937655      0.666234507     -1.85919271   1.23868532e-06      49.5604307
                  1.22909337e-06     -89.7678396      0.333762066     -179.999122   1.70380804e-06       98.394858      0.666238523     -1.85873083
                     0.666238005     -1.85882801   1.88567808e-06      101.447305      0.333763337      176.284164   2.35639776e-06     -103.639058
                   1.8347462e-06      96.5734903      0.666239404     -1.85866421   1.66439342e-06     -129.405236      0.333767818      176.282526
20.14                0.333762683     -179.998835   1.32887749e-06     -92.9765539      0.666234618     -1.86103154   1.23731069e-06       49.558965
                  1.22773731e-06     -89.7557905      0.333762064     -179.999121   1.70242244e-06      98.3885071      0.666238602     -1.86057065
                     0.666238016     -1.86066931   1.88377698e-06      101.417763      0.333763449      176.280489   2.35330855e-06     -103.682302
                  1.83317444e-06      96.5294991      0.666239398     -1.86050573   1.66220257e-06     -129.444074      0.333767929      176.278853
20.16                0.333762682     -179.998835   1.32737886e-06     -92.9592471      0.666234728     -1.86287037   1.23593143e-06      49.5574884
                  1.22637738e-06     -89.7436783      0.333762062     -179.999121   1.70103164e-06      98.3821154      0.666238681     -1.86241049
                     0.666238026     -1.86251061   1.88186862e-06      101.388059      0.333763561      176.276813   2.35020854e-06     -103.725745
                  1.83159658e-06      96.4852743      0.666239392     -1.86234726   1.66000501e-06     -129.483075      0.333768041       176.27518
20.18                0.333762681     -179.998835   1.32587592e-06     -92.9418442      0.666234838     -1.86470923    1.2345475e-06       49.556001
                  1.22501354e-06     -89.7315023       0.33376206      -179.99912   1.69963562e-06      98.3756827      0.666238759     -1.86425035
                     0.666238037     -1.86435191   1.87995295e-06      101.358192      0.333763673      176.273137   2.34709767e-06     -103.769389
                  1.83001256e-06      96.4408142      0.666239386     -1.86418879   1.65780073e-06     -129.522239      0.333768151      176.271506
20.2                 0.333762679     -179.998835   1.32436863e-06     -92.9243443      0.666234947      -1.8665481   1.23315889e-06      49.5545026
                  1.22364578e-06     -89.7192621      0.333762058      -179.99912   1.69823433e-06      98.3692085      0.666238837     -1.86609022
                     0.666238047     -1.86619322   1.87802994e-06      101.328161      0.333763785      176.269461   2.34397587e-06     -103.813236
                  1.82842237e-06      96.3961169       0.66623938     -1.86603034   1.65558967e-06     -129.561569      0.333768262      176.267833
20.22                0.333762678     -179.998835   1.32285699e-06     -92.9067467      0.666235056     -1.86838698   1.23176556e-06      49.5529931
                  1.22227409e-06     -89.7069572      0.333762056     -179.999119   1.69682776e-06      98.3626925      0.666238914     -1.86793011
                     0.666238057     -1.86803454   1.87609952e-06      101.297963      0.333763896      176.265785   2.34084308e-06     -103.857288
                  1.82682594e-06      96.3511806      0.666239374     -1.86787188   1.65337182e-06     -129.601064      0.333768372       176.26416
20.24                0.333762677     -179.998834   1.32134097e-06     -92.8890506      0.666235164     -1.87022588   1.23036748e-06      49.5514726
                  1.22089845e-06      -89.694587      0.333762054     -179.999119   1.69541586e-06      98.3561345      0.666238991     -1.86977002
                     0.666238067     -1.86987586   1.87416167e-06      101.267599      0.333764006      176.262109   2.33769925e-06     -103.901544
                  1.82522326e-06      96.3060036      0.666239368     -1.86971344   1.65114714e-06     -129.640726      0.333768481      176.260486
20.26                0.333762675     -179.998834   1.31982055e-06      -92.871255      0.666235272     -1.87206479   1.22896464e-06      49.5499408
                  1.21951883e-06      -89.682151      0.333762052     -179.999118    1.6939986e-06       98.349534      0.666239067     -1.87160994
                     0.666238077     -1.87171719   1.87221632e-06      101.237065      0.333764117      176.258433   2.33454431e-06     -103.946008
                  1.82361426e-06      96.2605838      0.666239362       -1.871555   1.64891559e-06     -129.680557       0.33376859      176.256812
20.28                0.333762674     -179.998834    1.3182957e-06     -92.8533591      0.666235379     -1.87390372   1.22755699e-06      49.5483979
                  1.21813522e-06     -89.6696487       0.33376205     -179.999117   1.69257596e-06      98.3428907      0.666239143     -1.87344988
                     0.666238087     -1.87355853   1.87026343e-06      101.206362      0.333764227      176.254757   2.33137821e-06     -103.990679
                  1.82199892e-06      96.2149195      0.666239356     -1.87339657   1.64667714e-06     -129.720556      0.333768698      176.253139
20.3                 0.333762673     -179.998834   1.31676642e-06     -92.8353621      0.666235485     -1.87574267   1.22614453e-06      49.5468436
                   1.2167476e-06     -89.6570795      0.333762048     -179.999117   1.69114788e-06      98.3362043      0.666239219     -1.87528984
                     0.666238097     -1.87539987   1.86830295e-06      101.175488      0.333764336      176.251081   2.32820088e-06     -104.035561
                  1.82037719e-06      96.1690088       0.66623935     -1.87523814   1.64443177e-06     -129.760726      0.333768806      176.249465
20.32                0.333762671     -179.998834   1.31523267e-06      -92.817263      0.666235591     -1.87758162   1.22472721e-06       49.545278
                  1.21535595e-06     -89.6444429      0.333762046     -179.999116   1.68971435e-06      98.3294744      0.666239294     -1.87712981
                     0.666238106     -1.87724121   1.86633483e-06      101.144441      0.333764445      176.247404   2.32501225e-06     -104.080654
                  1.81874903e-06      96.1228497      0.666239344     -1.87707973   1.64217943e-06     -129.801067      0.333768914      176.245791
20.34                 0.33376267     -179.998833   1.31369445e-06     -92.7990611      0.666235697      -1.8794206   1.22330502e-06       49.543701
                  1.21396025e-06     -89.6317383      0.333762044     -179.999116   1.68827533e-06      98.3227007      0.666239368      -1.8789698
                     0.666238116     -1.87908256   1.86435903e-06       101.11322      0.333764554      176.243728   2.32181227e-06     -104.125959
                   1.8171144e-06      96.0764403      0.666239338     -1.87892131    1.6399201e-06     -129.841581      0.333769021      176.242117
20.36                0.333762669     -179.998833   1.31215171e-06     -92.7807554      0.666235801     -1.88125959   1.22187791e-06      49.5421124
                  1.21256048e-06     -89.6189652      0.333762042     -179.999115   1.68683078e-06      98.3158827      0.666239442      -1.8808098
                     0.666238125     -1.88092392   1.86237549e-06      101.081824      0.333764663      176.240051   2.31860088e-06     -104.171479
                  1.81547325e-06      96.0297787      0.666239331     -1.88076291   1.63765374e-06     -129.882269      0.333769128      176.238443
20.38                0.333762667     -179.998833   1.31060445e-06      -92.762345      0.666235906     -1.88309859   1.22044588e-06      49.5405123
                  1.21115663e-06      -89.606123       0.33376204     -179.999114   1.68538066e-06      98.3090202      0.666239516     -1.88264983
                     0.666238135     -1.88276529   1.86038416e-06      101.050251      0.333764771      176.236374     2.315378e-06     -104.217214
                  1.81382555e-06      95.9828629      0.666239325     -1.88260451   1.63538031e-06     -129.923132      0.333769234      176.234769
20.4                 0.333762666     -179.998833   1.30905264e-06      -92.743829      0.666236009     -1.88493761   1.21900888e-06      49.5389005
                  1.20974867e-06     -89.5932111      0.333762038     -179.999114   1.68392495e-06      98.3021128      0.666239589     -1.88448986
                     0.666238144     -1.88460665   1.85838499e-06      101.018499      0.333764879      176.232698   2.31214358e-06     -104.263167
                  1.81217125e-06      95.9356908      0.666239319     -1.88444612   1.63309979e-06      -129.96417       0.33376934      176.231094
20.42                0.333762665     -179.998833   1.30749627e-06     -92.7252064      0.666236112     -1.88677665   1.21756688e-06      49.5372771
                  1.20833658e-06     -89.5802288      0.333762036     -179.999113   1.68246361e-06      98.2951601      0.666239661     -1.88632992
                     0.666238153     -1.88644803   1.85637794e-06      100.986568      0.333764986      176.229021   2.30889755e-06     -104.309339
                   1.8105103e-06      95.8882606      0.666239312     -1.88628774   1.63081213e-06     -130.005386      0.333769445       176.22742
20.44                0.333762663     -179.998832    1.3059353e-06     -92.7064764      0.666236215      -1.8886157   1.21611987e-06      49.5356418
                  1.20692034e-06     -89.5671758      0.333762034     -179.999113    1.6809966e-06      98.2881617      0.666239734     -1.88816999
                     0.666238162     -1.88828941   1.85436294e-06      100.954455      0.333765093      176.225344   2.30563984e-06      -104.35573
                  1.80884266e-06      95.8405701      0.666239306     -1.88812937    1.6285173e-06     -130.046781       0.33376955      176.223745
20.46                0.333762662     -179.998832   1.30436972e-06      -92.687638      0.666236317     -1.89045476    1.2146678e-06      49.5339947
                  1.20549994e-06     -89.5540513      0.333762032     -179.999112   1.67952388e-06      98.2811173      0.666239805     -1.89001008
                     0.666238171      -1.8901308   1.85233996e-06      100.922159        0.3337652      176.221667    2.3023704e-06     -104.402344
                  1.80716829e-06      95.7926172      0.666239299       -1.889971   1.62621528e-06     -130.088355      0.333769654      176.220071
20.48                0.333762661     -179.998832   1.30279951e-06     -92.6686902      0.666236419     -1.89229384   1.21321066e-06      49.5323357
                  1.20407535e-06     -89.5408547       0.33376203     -179.999112   1.67804542e-06      98.2740264      0.666239876     -1.89185019
                      0.66623818     -1.89197219   1.85030892e-06      100.889679      0.333765306       176.21799   2.29908915e-06     -104.449181
                  1.80548714e-06         95.7444      0.666239292     -1.89181264   1.62390602e-06      -130.13011      0.333769758      176.216396
20.5                 0.333762659     -179.998832   1.30122463e-06      -92.649632      0.666236519     -1.89413293    1.2117484e-06      49.5306647
                  1.20264656e-06     -89.5275854      0.333762027     -179.999111   1.67656118e-06      98.2668887      0.666239947     -1.89369031
                     0.666238188     -1.89381359   1.84826979e-06      100.857013      0.333765412      176.214313   2.29579603e-06     -104.496243
                  1.80379917e-06      95.6959163      0.666239286     -1.89365428   1.62158948e-06     -130.172047      0.333769862      176.212721
20.52                0.333762658     -179.998832   1.29964508e-06     -92.6304625       0.66623662     -1.89597204   1.21028101e-06      49.5289817
                  1.20121353e-06     -89.5142429      0.333762025      -179.99911   1.67507112e-06      98.2597038      0.666240017     -1.89553044
                     0.666238197     -1.89565499   1.84622251e-06       100.82416      0.333765517      176.210635   2.29249097e-06     -104.543532
                  1.80210433e-06       95.647164      0.666239279     -1.89549593   1.61926564e-06     -130.214167      0.333769965      176.209047
20.54                0.333762656     -179.998831   1.29806083e-06     -92.6111807       0.66623672     -1.89781117   1.20880845e-06      49.5272865
                  1.19977626e-06     -89.5008264      0.333762023      -179.99911   1.67357522e-06      98.2524712      0.666240087      -1.8973706
                     0.666238205      -1.8974964   1.84416702e-06      100.791118      0.333765623      176.206958   2.28917391e-06      -104.59105
                  1.80040258e-06       95.598141      0.666239272     -1.89733759   1.61693446e-06     -130.256472      0.333770067      176.205372
20.56                0.333762655     -179.998831   1.29647185e-06     -92.5917856      0.666236819     -1.89965031   1.20733069e-06      49.5255791
                  1.19833472e-06     -89.4873354      0.333762021     -179.999109   1.67207342e-06      98.2451907      0.666240157     -1.89921077
                     0.666238214     -1.89933782   1.84210327e-06      100.757885      0.333765727       176.20328   2.28584477e-06     -104.638797
                  1.79869386e-06       95.548845      0.666239265     -1.89917926   1.61459589e-06     -130.298963      0.333770169      176.201697
20.58                0.333762654     -179.998831   1.29487812e-06     -92.5722762      0.666236917     -1.90148946   1.20584769e-06      49.5238595
                  1.19688889e-06     -89.4737693      0.333762019     -179.999109   1.67056569e-06      98.2378618      0.666240225     -1.90105096
                     0.666238222     -1.90117924    1.8400312e-06       100.72446      0.333765832      176.199603   2.28250349e-06     -104.686775
                  1.79697814e-06       95.499274      0.666239258     -1.90102094   1.61224992e-06     -130.341641      0.333770271      176.198021
20.6                 0.333762652     -179.998831   1.29327963e-06     -92.5526513      0.666237016     -1.90332863   1.20435944e-06      49.5221275
                  1.19543875e-06     -89.4601273      0.333762017     -179.999108     1.669052e-06      98.2304841      0.666240294     -1.90289116
                      0.66623823     -1.90302067   1.83795076e-06      100.690841      0.333765936      176.195925      2.27915e-06     -104.734988
                  1.79525536e-06      95.4494256      0.666239252     -1.90286262   1.60989649e-06     -130.384507      0.333770372      176.194346
20.62                0.333762651     -179.998831   1.29167634e-06     -92.5329101      0.666237113     -1.90516782    1.2028659e-06      49.5203831
                  1.19398428e-06     -89.4464088      0.333762015     -179.999107    1.6675323e-06      98.2230571      0.666240362     -1.90473139
                     0.666238238      -1.9048621    1.8358619e-06      100.657026       0.33376604      176.192247   2.27578423e-06     -104.783435
                  1.79352548e-06      95.3992977      0.666239245      -1.9047043   1.60753557e-06     -130.427563      0.333770473      176.190671
20.64                 0.33376265      -179.99883   1.29006823e-06     -92.5130514       0.66623721     -1.90700702   1.20136703e-06      49.5186262
                  1.19252545e-06     -89.4326132      0.333762013     -179.999107   1.66600655e-06      98.2155805      0.666240429     -1.90657162
                     0.666238246     -1.90670354   1.83376455e-06      100.623015      0.333766143      176.188569   2.27240611e-06     -104.832118
                  1.79178845e-06       95.348888      0.666239237       -1.906546   1.60516712e-06      -130.47081      0.333770573      176.186995
20.66                0.333762648      -179.99883   1.28845528e-06     -92.4930741      0.666237307     -1.90884624   1.19986281e-06      49.5168568
                  1.19106225e-06     -89.4187397      0.333762011     -179.999106   1.66447472e-06      98.2080538      0.666240496     -1.90841188
                     0.666238254     -1.90854499   1.83165866e-06      100.588805      0.333766246      176.184891   2.26901557e-06     -104.881041
                  1.79004421e-06      95.2981942       0.66623923      -1.9083877   1.60279112e-06      -130.51425      0.333770673       176.18332
20.68                0.333762647      -179.99883   1.28683747e-06     -92.4729773      0.666237402     -1.91068547    1.1983532e-06      49.5150748
                  1.18959465e-06     -89.4047878      0.333762009     -179.999106   1.66293676e-06      98.2004766      0.666240563     -1.91025215
                     0.666238261     -1.91038644   1.82954417e-06      100.554394      0.333766348      176.181213   2.26561253e-06     -104.930203
                  1.78829273e-06       95.247214      0.666239223     -1.91022941   1.60040751e-06     -130.557883      0.333770772      176.179644
20.7                 0.333762645      -179.99883   1.28521477e-06     -92.4527597      0.666237498     -1.91252471   1.19683817e-06      49.5132801
                  1.18812264e-06     -89.3907567      0.333762006     -179.999105   1.66139264e-06      98.1928486      0.666240629     -1.91209244
                     0.666238269      -1.9122279   1.82742103e-06      100.519781       0.33376645      176.177535   2.26219694e-06     -104.979607
                  1.78653395e-06      95.1959451      0.666239216     -1.91207113   1.59801627e-06     -130.601711      0.333770871      176.175969
20.72                0.333762644      -179.99883   1.28358715e-06     -92.4324203      0.666237592     -1.91436397   1.19531769e-06      49.5114726
                  1.18664619e-06     -89.3766458      0.333762004     -179.999104   1.65984231e-06      98.1851692      0.666240694     -1.91393274
                     0.666238276     -1.91406936   1.82528917e-06      100.484964      0.333766552      176.173857    2.2587687e-06     -105.029255
                  1.78476781e-06      95.1443851      0.666239209     -1.91391285   1.59561736e-06     -130.645736      0.333770969      176.172293
20.74                0.333762643     -179.998829    1.2819546e-06      -92.411958      0.666237687     -1.91620325   1.19379172e-06      49.5096523
                  1.18516527e-06     -89.3624543      0.333762002     -179.999104   1.65828574e-06      98.1774379      0.666240759     -1.91577306
                     0.666238284     -1.91591083   1.82314853e-06      100.449941      0.333766654      176.170179   2.25532776e-06     -105.079149
                  1.78299428e-06      95.0925317      0.666239201     -1.91575458   1.59321072e-06     -130.689959      0.333771067      176.168617
20.76                0.333762641     -179.998829   1.28031709e-06     -92.3913716       0.66623778     -1.91804254   1.19226024e-06      49.5078191
                  1.18367987e-06     -89.3481815         0.333762     -179.999103   1.65672287e-06      98.1696545      0.666240824      -1.9176134
                     0.666238291     -1.91775231   1.82099906e-06      100.414711      0.333766755        176.1665   2.25187404e-06      -105.12929
                   1.7812133e-06      95.0403824      0.666239194     -1.91759632   1.59079634e-06      -130.73438      0.333771164      176.164941
20.78                 0.33376264     -179.998829    1.2786746e-06       -92.37066      0.666237873     -1.91988185   1.19072321e-06       49.505973
                  1.18218996e-06     -89.3338267      0.333761998     -179.999103   1.65515368e-06      98.1618184      0.666240888     -1.91945375
                     0.666238298     -1.91959379    1.8188407e-06      100.379271      0.333766855      176.162822   2.24840746e-06      -105.17968
                  1.77942482e-06      94.9879348      0.666239187     -1.91943807   1.58837417e-06     -130.779003      0.333771261      176.161265
20.8                 0.333762638     -179.998829    1.2770271e-06     -92.3498221      0.666237966     -1.92172117   1.18918059e-06      49.5041138
                  1.18069553e-06     -89.3193892      0.333761996     -179.999102   1.65357811e-06      98.1539291      0.666240951     -1.92129413
                     0.666238305     -1.92143527   1.81667337e-06       100.34362      0.333766955      176.159143   2.24492796e-06     -105.230321
                  1.77762878e-06      94.9351865      0.666239179     -1.92127982   1.58594417e-06     -130.823827      0.333771357      176.157589
20.82                0.333762637     -179.998829   1.27537456e-06     -92.3288565      0.666238058     -1.92356051   1.18763235e-06      49.5022414
                  1.17919654e-06     -89.3048682      0.333761993     -179.999101   1.65199613e-06      98.1459863      0.666241015     -1.92313451
                     0.666238312     -1.92327677   1.81449703e-06      100.307757      0.333767055      176.155464   2.24143545e-06     -105.281215
                  1.77582513e-06       94.882135      0.666239172     -1.92312158    1.5835063e-06     -130.868855      0.333771453      176.153912
20.84                0.333762635     -179.998829   1.27371696e-06     -92.3077622      0.666238149     -1.92539986   1.18607847e-06      49.5003559
                  1.17769298e-06     -89.2902631      0.333761991     -179.999101   1.65040769e-06      98.1379894      0.666241077     -1.92497492
                     0.666238319     -1.92511826   1.81231161e-06      100.271678      0.333767155      176.151786   2.23792986e-06     -105.332364
                  1.77401383e-06      94.8287777      0.666239164     -1.92496335   1.58106052e-06     -130.914088      0.333771549      176.150236
20.86                0.333762634     -179.998828   1.27205428e-06      -92.286538       0.66623824     -1.92723923   1.18451889e-06      49.4984572
                  1.17618482e-06      -89.275573      0.333761989       -179.9991   1.64881275e-06       98.129938      0.666241139     -1.92681534
                     0.666238326     -1.92695977   1.81011705e-06      100.235383      0.333767254      176.148107   2.23441111e-06     -105.383769
                  1.77219481e-06      94.7751121      0.666239156     -1.92680512    1.5786068e-06     -130.959527      0.333771644      176.146559
20.88                0.333762633     -179.998828   1.27038649e-06     -92.2651826       0.66623833     -1.92907861    1.1829536e-06      49.4965451
                  1.17467204e-06     -89.2607971      0.333761987     -179.999099   1.64721126e-06      98.1218315      0.666241201     -1.92865578
                     0.666238332     -1.92880128   1.80791328e-06      100.198869      0.333767353      176.144428   2.23087913e-06     -105.435433
                  1.77036803e-06      94.7211357      0.666239149      -1.9286469   1.57614509e-06     -131.005173      0.333771738      176.142883
20.9                 0.333762631     -179.998828   1.26871357e-06     -92.2436947      0.666238419     -1.93091801   1.18138255e-06      49.4946196
                  1.17315462e-06     -89.2459348      0.333761984     -179.999099   1.64560319e-06      98.1136697      0.666241262     -1.93049623
                     0.666238339      -1.9306428   1.80570024e-06      100.162135      0.333767451      176.140749   2.22733385e-06     -105.487358
                  1.76853343e-06      94.6668459      0.666239141     -1.93048869   1.57367535e-06      -131.05103      0.333771832      176.139206
20.92                 0.33376263     -179.998828   1.26703548e-06     -92.2220732      0.666238508     -1.93275742    1.1798057e-06      49.4926807
                  1.17163253e-06     -89.2309852      0.333761982     -179.999098   1.64398848e-06      98.1054518      0.666241323      -1.9323367
                     0.666238345     -1.93248432   1.80347786e-06      100.125178      0.333767549       176.13707   2.22377517e-06     -105.539545
                  1.76669094e-06      94.6122399      0.666239133     -1.93233049   1.57119755e-06     -131.097097      0.333771926      176.135529
20.94                0.333762628     -179.998828   1.26535221e-06     -92.2003167      0.666238597     -1.93459685   1.17822303e-06      49.4907282
                  1.17010574e-06     -89.2159476       0.33376198     -179.999098   1.64236709e-06      98.0971775      0.666241383     -1.93417719
                     0.666238351     -1.93432585   1.80124608e-06      100.087996      0.333767646       176.13339   2.22020304e-06     -105.591996
                  1.76484053e-06      94.5573153      0.666239125     -1.93417229   1.56871163e-06     -131.143376      0.333772019      176.131853
20.96                0.333762627     -179.998827   1.26366372e-06     -92.1784241      0.666238685     -1.93643629    1.1766345e-06      49.4887621
                  1.16857425e-06     -89.2008211      0.333761978     -179.999097   1.64073897e-06      98.0888463      0.666241443      -1.9360177
                     0.666238357     -1.93616738   1.79900484e-06      100.050588      0.333767744      176.129711   2.21661735e-06     -105.644715
                  1.76298213e-06      94.5020693      0.666239117      -1.9360141   1.56621757e-06      -131.18987      0.333772111      176.128176
20.98                0.333762625     -179.998827      1.26197e-06     -92.1563939      0.666238772     -1.93827575   1.17504006e-06      49.4867823
                  1.16703801e-06     -89.1856049      0.333761975     -179.999096   1.63910408e-06      98.0804576      0.666241502     -1.93785822