! TOUCHSTONE file generated by CST MICROWAVE STUDIO
! Date and time: Mon Mar 10 22:38:50 2025
! Project name: Sheet_R376ab_Lo4.cst
! Parameters = {Dport=-5.65385; Dspace=5.76923; Lamb=11.5385; Rs=376; Xs=0; a=2.88462; b=2.88462; phi=0; theta=0}
! Header version: 2024
! Port assignment regex: !\s*Touchstone port\s*([0-9]+)\s*=\s*(CST MWS port|CST DES external port|CST DES block port)\s*(.+)\s* \(\"(.*)\"\)(\s*mode\s*([0-9]+))?.*
! Touchstone port assignment:
! Touchstone port 1 = CST MWS port Zmax ("") mode 1
! Touchstone port 2 = CST MWS port Zmax ("") mode 2
! Touchstone port 3 = CST MWS port Zmin ("") mode 1
! Touchstone port 4 = CST MWS port Zmin ("") mode 2
# GHz S MA R 376.73
20                   0.333762692     -179.998838   1.33924862e-06     -93.0950783       0.66623383     -2.77187626     1.246837e-06      48.6452175
                  1.23714924e-06     -89.8388368      0.333762077     -179.999127    1.7120255e-06       97.508404      0.666238038     -2.77140845
                     0.666237939     -2.77149659   1.89693477e-06      100.697512      0.333762655      174.458781   2.37470849e-06     -105.231173
                  1.84405068e-06      95.9089137      0.666239437     -2.77133145   1.67740025e-06     -131.022651      0.333767139      174.457128
20.02                0.333762695     -179.998841   1.33637895e-06     -93.0896346      0.666233888     -2.77463903    1.2439656e-06      48.6156047
                  1.23452641e-06     -89.8345698      0.333762079     -179.999129   1.70853987e-06      97.4889391      0.666238066     -2.77417374
                      0.66623793     -2.77426126   1.89229506e-06        100.6256      0.333762768      174.453241   2.36763442e-06     -105.313024
                  1.84011943e-06      95.7700148      0.666239419     -2.77409728   1.67160392e-06      -131.07961      0.333767226      174.451592
20.04                0.333762698     -179.998844   1.33349871e-06     -93.0841009      0.666233945     -2.77740182   1.24108243e-06      48.5858295
                  1.23189426e-06     -89.8302264      0.333762082     -179.999131   1.70503792e-06      97.4693798      0.666238094     -2.77693905
                     0.666237921     -2.77702595   1.88762949e-06      100.553243      0.333762881      174.447701    2.3605309e-06     -105.395202
                  1.83616171e-06      95.6301768      0.666239401     -2.77686311   1.66579184e-06      -131.13667      0.333767313      174.446055
20.06                0.333762701     -179.998847   1.33060784e-06     -93.0784759      0.666234002     -2.78016462   1.23818742e-06      48.5558903
                  1.22925273e-06     -89.8258054      0.333762085     -179.999134   1.70151955e-06      97.4497257      0.666238121     -2.77970437
                     0.666237911     -2.77979064   1.88293786e-06      100.480435      0.333762993       174.44216   2.35339778e-06     -105.477708
                   1.8321773e-06      95.4893911      0.666239384     -2.77962895   1.65996397e-06     -131.193828      0.333767399      174.440519
20.08                0.333762704      -179.99885   1.32770627e-06     -93.0727581      0.666234059     -2.78292744   1.23528049e-06      48.5257858
                  1.22660176e-06     -89.8213053      0.333762088     -179.999136   1.69798463e-06      97.4299762      0.666238149     -2.78246971
                     0.666237902     -2.78255534   1.87821995e-06      100.407173      0.333763105       174.43662   2.34623493e-06     -105.560544
                  1.82816595e-06      95.3476487      0.666239366     -2.78239479   1.65412026e-06     -131.251083      0.333767484      174.434982
20.1                 0.333762708     -179.998853   1.32479395e-06     -93.0669459      0.666234115     -2.78569027   1.23236156e-06      48.4955145
                  1.22394131e-06     -89.8167251       0.33376209     -179.999139   1.69443303e-06      97.4101308      0.666238175     -2.78523505
                     0.666237892     -2.78532004   1.87347553e-06      100.333453      0.333763215      174.431079   2.33904219e-06      -105.64371
                  1.82412743e-06      95.2049406      0.666239348     -2.78516065   1.64826068e-06     -131.308436      0.333767568      174.429446
20.12                0.333762711     -179.998856    1.3218708e-06     -93.0610378       0.66623417     -2.78845311   1.22943056e-06       48.465075
                  1.22127132e-06     -89.8120633      0.333762093     -179.999141   1.69086464e-06      97.3901891      0.666238202     -2.78800041
                     0.666237882     -2.78808476    1.8687044e-06      100.259271      0.333763326      174.425539   2.33181943e-06     -105.727208
                  1.82006152e-06      95.0612579      0.666239329     -2.78792651    1.6423852e-06     -131.365886      0.333767652      174.423909
20.14                0.333762714      -179.99886   1.31893677e-06     -93.0550322      0.666234225     -2.79121597    1.2264874e-06      48.4344659
                  1.21859174e-06     -89.8073186      0.333762096     -179.999144   1.68727932e-06      97.3701506      0.666238228     -2.79076578
                     0.666237872     -2.79084947   1.86390632e-06      100.184623      0.333763435      174.419998    2.3245665e-06     -105.811039
                  1.81596797e-06      94.9165913      0.666239311     -2.79069237   1.63649377e-06      -131.42343      0.333767735      174.418372
20.16                0.333762717     -179.998863   1.31599179e-06     -93.0489274       0.66623428     -2.79397885   1.22353202e-06      48.4036855
                  1.21590251e-06     -89.8024898      0.333762099     -179.999146   1.68367696e-06      97.3500146      0.666238253     -2.79353116
                     0.666237862      -2.7936142   1.85908108e-06      100.109505      0.333763544      174.414457   2.31728326e-06     -105.895205
                  1.81184654e-06      94.7709314      0.666239293     -2.79345825   1.63058636e-06     -131.481069      0.333767817      174.412836
20.18                 0.33376272     -179.998866    1.3130358e-06     -93.0427218      0.666234334     -2.79674173   1.22056432e-06      48.3727325
                  1.21320358e-06     -89.7975753      0.333762101     -179.999149   1.68005741e-06      97.3297809      0.666238279     -2.79629655
                     0.666237852     -2.79637893   1.85422844e-06      100.033912      0.333763652      174.408917   2.30996955e-06     -105.979706
                  1.80769699e-06       94.624269      0.666239275     -2.79622413   1.62466294e-06     -131.538802      0.333767899      174.407299
20.2                 0.333762723     -179.998869   1.31006873e-06     -93.0364138      0.666234388     -2.79950463   1.21758423e-06      48.3416053
                  1.21049489e-06     -89.7925739      0.333762104     -179.999152   1.67642056e-06      97.3094488      0.666238304     -2.79906195
                     0.666237842     -2.79914367   1.84934819e-06      99.9578411       0.33376376      174.403376   2.30262524e-06     -106.064544
                  1.80351909e-06      94.4765944      0.666239257     -2.79899002   1.61872345e-06     -131.596627       0.33376798      174.401762
20.22                0.333762727     -179.998872   1.30709051e-06     -93.0300016      0.666234441     -2.80226755   1.21459167e-06      48.3103024
                  1.20777639e-06      -89.787484      0.333762107     -179.999154   1.67276626e-06      97.2890178      0.666238328     -2.80182737
                     0.666237832     -2.80190842   1.84444008e-06      99.8812873      0.333763867      174.397835   2.29525017e-06      -106.14972
                  1.79931258e-06       94.327898      0.666239239     -2.80175591   1.61276788e-06     -131.654544       0.33376806      174.396226
20.24                 0.33376273     -179.998876   1.30410108e-06     -93.0234834      0.666234494     -2.80503048   1.21158656e-06      48.2788221
                  1.20504802e-06     -89.7823042       0.33376211     -179.999157    1.6690944e-06      97.2684875      0.666238352      -2.8045928
                     0.666237822     -2.80467317   1.83950388e-06      99.8042464      0.333763973      174.392294   2.28784421e-06     -106.235235
                  1.79507721e-06      94.1781699       0.66623922     -2.80452182   1.60679617e-06     -131.712552       0.33376814      174.390689
20.26                0.333762733     -179.998879   1.30110038e-06     -93.0168576      0.666234546     -2.80779342    1.2085688e-06       48.247163
                  1.20230973e-06     -89.7770331      0.333762112     -179.999159   1.66540483e-06      97.2478574      0.666238376     -2.80735824
                     0.666237811     -2.80743793   1.83453936e-06      99.7267142      0.333764079      174.386753   2.28040719e-06      -106.32109
                  1.79081274e-06      94.0274004      0.666239202     -2.80728773   1.60080831e-06     -131.770649      0.333768219      174.385152
20.28                0.333762736     -179.998882   1.29808833e-06     -93.0101222      0.666234598     -2.81055637   1.20553833e-06      48.2153233
                  1.19956145e-06      -89.771669      0.333762115     -179.999162   1.66169742e-06       97.227127      0.666238399     -2.81012369
                     0.666237801      -2.8102027   1.82954628e-06      99.6486863      0.333764184      174.381211   2.27293899e-06     -106.407288
                  1.78651893e-06      93.8755793      0.666239184     -2.81005364   1.59480424e-06     -131.828834      0.333768297      174.379615
20.3                 0.333762739     -179.998885   1.29506486e-06     -93.0032754      0.666234649     -2.81331934   1.20249505e-06      48.1833015
                  1.19680314e-06     -89.7662106      0.333762118     -179.999164   1.65797203e-06      97.2062958      0.666238422     -2.81288915
                      0.66623779     -2.81296748   1.82452439e-06      99.5701582      0.333764288       174.37567   2.26543944e-06     -106.493828
                   1.7821955e-06      93.7226965      0.666239165     -2.81281957   1.58878393e-06     -131.887107      0.333768375      174.374078
20.32                0.333762742     -179.998889   1.29202992e-06     -92.9963153        0.6662347     -2.81608233   1.19943888e-06      48.1510959
                  1.19403473e-06     -89.7606561       0.33376212     -179.999167   1.65422852e-06      97.1853632      0.666238445     -2.81565462
                      0.66623778     -2.81573226   1.81947347e-06      99.4911254      0.333764392      174.370129    2.2579084e-06     -106.580713
                  1.77784222e-06      93.5687416      0.666239147      -2.8155855   1.58274735e-06     -131.945466      0.333768452      174.368541
20.34                0.333762745     -179.998892   1.28898343e-06       -92.98924      0.666234751     -2.81884533   1.19636974e-06      48.1187049
                  1.19125616e-06      -89.755004      0.333762123      -179.99917   1.65046676e-06      97.1643289      0.666238467     -2.81842011
                     0.666237769     -2.81849704   1.81439325e-06      99.4115834      0.333764495      174.364588   2.25034573e-06     -106.667942
                  1.77345883e-06      93.4137044      0.666239128     -2.81835144   1.57669446e-06     -132.003911      0.333768528      174.363004
20.36                0.333762749     -179.998895   1.28592531e-06     -92.9820476        0.6662348     -2.82160834   1.19328754e-06      48.0861267
                  1.18846738e-06     -89.7492527      0.333762126     -179.999172   1.64668661e-06      97.1431924      0.666238489     -2.82118561
                     0.666237758     -2.82126184   1.80928349e-06      99.3315276      0.333764597      174.359046   2.24275127e-06     -106.755518
                  1.76904506e-06      93.2575741       0.66623911     -2.82111739   1.57062522e-06     -132.062439      0.333768604      174.357467
20.38                0.333762752     -179.998899   1.28285551e-06      -92.974736       0.66623485     -2.82437136   1.19019219e-06      48.0533597
                  1.18566832e-06     -89.7434004      0.333762129     -179.999175   1.64288792e-06       97.121953       0.66623851     -2.82395112
                     0.666237747     -2.82402664   1.80414394e-06      99.2509533      0.333764698      174.353505   2.23512487e-06     -106.843442
                  1.76460066e-06      93.1003402      0.666239091     -2.82388334   1.56453961e-06      -132.12105      0.333768679       174.35193
20.4                 0.333762755     -179.998902   1.27977395e-06     -92.9673031      0.666234899      -2.8271344    1.1870836e-06       48.020402
                  1.18285893e-06     -89.7374456      0.333762131     -179.999178   1.63907054e-06      97.1006105      0.666238532     -2.82671664
                     0.666237736     -2.82679145   1.79897435e-06      99.1698559      0.333764799      174.347963   2.22746639e-06     -106.931715
                  1.76012536e-06      92.9419916      0.666239072      -2.8266493   1.55843758e-06     -132.179742      0.333768753      174.346393
20.42                0.333762758     -179.998905   1.27668055e-06      -92.959747      0.666234947     -2.82989746   1.18396169e-06       47.987252
                  1.18003915e-06     -89.7313864      0.333762134      -179.99918   1.63523434e-06      97.0791642      0.666238552     -2.82948217
                     0.666237725     -2.82955627   1.79377446e-06      99.0882306        0.3337649      174.342421   2.21977568e-06     -107.020338
                   1.7556189e-06      92.7825176      0.666239054     -2.82941527    1.5523191e-06     -132.238514      0.333768827      174.340855
20.44                0.333762761     -179.998909   1.27357526e-06     -92.9520654      0.666234995     -2.83266052   1.18082636e-06      47.9539078
                  1.17720892e-06     -89.7252211      0.333762137     -179.999183   1.63137917e-06      97.0576137      0.666238573     -2.83224772
                     0.666237714     -2.83232109   1.78854402e-06      99.0060726      0.333764999       174.33688   2.21205259e-06     -107.109312
                  1.75108102e-06      92.6219068      0.666239035     -2.83218124   1.54618413e-06     -132.297364        0.3337689      174.335318
20.46                0.333762764     -179.998912   1.27045798e-06     -92.9442562      0.666235043      -2.8354236   1.17767753e-06      47.9203677
                  1.17436817e-06     -89.7189479      0.333762139     -179.999186   1.62750488e-06      97.0359586      0.666238592     -2.83501328
                     0.666237703     -2.83508592   1.78328275e-06      98.9233769      0.333765098      174.331338   2.20429696e-06     -107.198638
                  1.74651145e-06      92.4601481      0.666239016     -2.83494723   1.54003265e-06     -132.356292      0.333768972      174.329781
20.48                0.333762767     -179.998915   1.26732866e-06     -92.9363172       0.66623509      -2.8381867   1.17451511e-06      47.8866297
                  1.17151684e-06      -89.712565      0.333762142     -179.999188   1.62361131e-06      97.0141983      0.666238612     -2.83777884
                     0.666237692     -2.83785076   1.77799041e-06      98.8401388      0.333765197      174.325796   2.19650865e-06     -107.288317
                  1.74190992e-06        92.29723      0.666238998     -2.83771322   1.53386461e-06     -132.415296      0.333769044      174.324244
20.5                 0.333762771     -179.998919   1.26418722e-06     -92.9282462      0.666235136     -2.84094981     1.171339e-06      47.8526921
                  1.16865488e-06     -89.7060704      0.333762145     -179.999191   1.61969833e-06      96.9923325      0.666238631     -2.84054443
                      0.66623768      -2.8406156   1.77266671e-06      98.7563531      0.333765294      174.320254   2.18868751e-06     -107.378351
                  1.73727615e-06      92.1331409      0.666238979     -2.84047921   1.52767999e-06     -132.474374      0.333769115      174.318706
20.52                0.333762774     -179.998922   1.26103359e-06     -92.9200407      0.666235182     -2.84371293    1.1681491e-06      47.8185529
                  1.16578222e-06     -89.6994623      0.333762147     -179.999194   1.61576576e-06      96.9703606       0.66623865     -2.84331002
                     0.666237669     -2.84338045    1.7673114e-06      98.6720149      0.333765391      174.314712   2.18083339e-06     -107.468741
                  1.73260988e-06       91.967869       0.66623896     -2.84324522   1.52147874e-06     -132.533524      0.333769185      174.313169
20.54                0.333762777     -179.998926   1.25786768e-06     -92.9116985      0.666235228     -2.84647607   1.16494534e-06      47.7842103
                   1.1628988e-06     -89.6927388       0.33376215     -179.999197   1.61181347e-06      96.9482821      0.666238668     -2.84607562
                     0.666237657     -2.84614531    1.7619242e-06       98.587119      0.333765487       174.30917   2.17294613e-06     -107.559487
                  1.72791083e-06      91.8014024      0.666238941     -2.84601123   1.51526084e-06     -132.592746      0.333769254      174.307632
20.56                 0.33376278     -179.998929   1.25468942e-06     -92.9032172      0.666235273     -2.84923922   1.16172761e-06      47.7496622
                  1.16000455e-06     -89.6858978      0.333762153     -179.999199   1.60784129e-06      96.9260967      0.666238686     -2.84884124
                     0.666237645     -2.84891017   1.75650484e-06      98.5016603      0.333765583      174.303628   2.16502559e-06     -107.650591
                  1.72317873e-06      91.6337291      0.666238922     -2.84877725   1.50902625e-06     -132.652038      0.333769323      174.302094
20.58                0.333762783     -179.998933   1.25149875e-06     -92.8945943      0.666235318     -2.85200238   1.15849581e-06      47.7149067
                   1.1570994e-06     -89.6789373      0.333762155     -179.999202   1.60384907e-06      96.9038039      0.666238704     -2.85160686
                     0.666237634     -2.85167504   1.75105303e-06      98.4156334      0.333765678      174.298086   2.15707161e-06     -107.742054
                  1.71841328e-06      91.4648368      0.666238903     -2.85154328   1.50277494e-06     -132.711397      0.333769391      174.296557
20.6                 0.333762786     -179.998936   1.24829558e-06     -92.8858273      0.666235362     -2.85476556   1.15524985e-06      47.6799419
                  1.15418331e-06     -89.6718552      0.333762158     -179.999205   1.59983664e-06      96.8814032      0.666238721      -2.8543725
                     0.666237622     -2.85443992    1.7455685e-06      98.3290332      0.333765772      174.292544   2.14908405e-06     -107.833877
                  1.71361423e-06      91.2947131      0.666238884     -2.85430931   1.49650687e-06     -132.770822      0.333769459      174.291019
20.62                0.333762789      -179.99894   1.24507983e-06     -92.8769136      0.666235406     -2.85752875   1.15198964e-06      47.6447656
                  1.15125619e-06     -89.6646495      0.333762161     -179.999208   1.59580385e-06      96.8588942      0.666238738     -2.85713815
                      0.66623761     -2.85720481   1.74005097e-06      98.2418543      0.333765865      174.287001   2.14106276e-06     -107.926061
                  1.70878128e-06      91.1233454      0.666238865     -2.85707535   1.49022201e-06     -132.830312      0.333769525      174.285482
20.64                0.333762792     -179.998943   1.24185143e-06     -92.8678507      0.666235449     -2.86029196   1.14871508e-06      47.6093759
                  1.14831799e-06     -89.6573179      0.333762163     -179.999211   1.59175053e-06      96.8362765      0.666238754     -2.85990382
                     0.666237598      -2.8599697   1.73450015e-06      98.1540911      0.333765958      174.281459   2.13300757e-06     -108.018607
                  1.70391415e-06      90.9507209      0.666238846      -2.8598414   1.48392034e-06     -132.889864      0.333769592      174.279944
20.66                0.333762796     -179.998947    1.2386103e-06     -92.8586359      0.666235492     -2.86305518   1.14542606e-06      47.5737706
                  1.14536864e-06     -89.6498584      0.333762166     -179.999213   1.58767652e-06      96.8135496      0.666238771     -2.86266949
                     0.666237586      -2.8627346   1.72891575e-06      98.0657383       0.33376605      174.275917   2.12491835e-06     -108.111516
                  1.69901255e-06      90.7768266      0.666238826     -2.86260746   1.47760182e-06     -132.949477      0.333769657      174.274406
20.68                0.333762799      -179.99895   1.23535636e-06     -92.8492664      0.666235534     -2.86581842   1.14212249e-06      47.5379476
                  1.14240807e-06     -89.6422686      0.333762169     -179.999216   1.58358164e-06      96.7907131      0.666238786     -2.86543518
                     0.666237573      -2.8654995   1.72329748e-06      97.9767902      0.333766142      174.270374   2.11679493e-06     -108.204789
                  1.69407621e-06      90.6016495      0.666238807     -2.86537352   1.47126641e-06     -133.009149      0.333769722      174.268869
20.7                 0.333762802     -179.998954   1.23208953e-06     -92.8397396      0.666235576     -2.86858166   1.13880427e-06      47.5019048
                  1.13943622e-06     -89.6345463      0.333762171     -179.999219   1.57946574e-06      96.7677666      0.666238801     -2.86820088
                     0.666237561     -2.86826442   1.71764504e-06      97.8872413      0.333766232      174.264831   2.10863717e-06     -108.298427
                  1.68910482e-06      90.4251761      0.666238788     -2.86813959   1.46491408e-06     -133.068878      0.333769786      174.263331
20.72                0.333762805     -179.998957   1.22880972e-06     -92.8300525      0.666235617     -2.87134493   1.13547129e-06        47.46564
                  1.13645302e-06     -89.6266891      0.333762174     -179.999222   1.57532865e-06      96.7447098      0.666238816     -2.87096659
                     0.666237549     -2.87102933   1.71195814e-06      97.7970857      0.333766322      174.259289   2.10044492e-06     -108.392431
                  1.68409811e-06       90.247393      0.666238769     -2.87090567   1.45854481e-06     -133.128661      0.333769849      174.257793
20.74                0.333762808     -179.998961   1.22551687e-06     -92.8202022      0.666235658      -2.8741082   1.13212346e-06       47.429151
                  1.13345839e-06     -89.6186946      0.333762177     -179.999225   1.57117018e-06      96.7215421      0.666238831     -2.87373231
                     0.666237536     -2.87379426   1.70623648e-06      97.7063178      0.333766412      174.253746   2.09221803e-06     -108.486801
                  1.67905577e-06      90.0682864      0.666238749     -2.87367175   1.45215857e-06     -133.188496      0.333769912      174.252256
20.76                0.333762811     -179.998964   1.22221089e-06     -92.8101859      0.666235698     -2.87687149   1.12876067e-06      47.3924355
                  1.13045228e-06     -89.6105604      0.333762179     -179.999228   1.56699016e-06      96.6982632      0.666238845     -2.87649804
                     0.666237523     -2.87655919   1.70047975e-06      97.6149316        0.3337665      174.248203   2.08395634e-06      -108.58154
                  1.67397753e-06      89.8878424       0.66623873     -2.87643785   1.44575531e-06     -133.248383      0.333769974      174.246718
20.78                0.333762814     -179.998968   1.21889169e-06     -92.8000005      0.666235738     -2.87963479   1.12538281e-06      47.3554913
                  1.12743461e-06     -89.6022841      0.333762182     -179.999231   1.56278843e-06      96.6748727      0.666238859     -2.87926378
                     0.666237511     -2.87932414   1.69468764e-06      97.5229213      0.333766588       174.24266    2.0756597e-06     -108.676647
                  1.66886307e-06      89.7060469       0.66623871     -2.87920395   1.43933502e-06     -133.308317      0.333770035       174.24118
20.8                 0.333762817     -179.998972   1.21555919e-06     -92.7896429      0.666235777     -2.88239811   1.12198978e-06       47.318316
                  1.12440531e-06     -89.5938631      0.333762184     -179.999234    1.5585648e-06      96.6513703      0.666238872     -2.88202954
                     0.666237498     -2.88208908   1.68885985e-06      97.4302808      0.333766676      174.237118   2.06732796e-06     -108.772124
                  1.66371211e-06      89.5228855      0.666238691     -2.88197006   1.43289766e-06     -133.368297      0.333770096      174.235642
20.82                 0.33376282     -179.998975   1.21221331e-06     -92.7791099      0.666235816     -2.88516144   1.11858147e-06      47.2809073
                  1.12136432e-06     -89.5852948      0.333762187     -179.999236    1.5543191e-06      96.6277555      0.666238885     -2.88479531
                     0.666237485     -2.88485404   1.68299606e-06      97.3370041      0.333766762      174.231575   2.05896098e-06     -108.867971
                  1.65852435e-06      89.3383435      0.666238671     -2.88473617    1.4264432e-06     -133.428321      0.333770155      174.230104
20.84                0.333762824     -179.998979   1.20885396e-06     -92.7683984      0.666235854     -2.88792479   1.11515779e-06      47.2432628
                  1.11831156e-06     -89.5765766       0.33376219     -179.999239   1.55005113e-06      96.6040281      0.666238898     -2.88756109
                     0.666237472       -2.887619   1.67709596e-06      97.2430849      0.333766848      174.226032   2.05055859e-06     -108.964189
                  1.65329949e-06      89.1524064      0.666238652     -2.88750229   1.41997162e-06     -133.488386      0.333770215      174.224566
20.86                0.333762827     -179.998983   1.20548107e-06      -92.757505      0.666235892     -2.89068815    1.1117186e-06      47.2053801
                  1.11524696e-06     -89.5677057      0.333762192     -179.999242   1.54576072e-06      96.5801876       0.66623891     -2.89032688
                     0.666237459     -2.89038397   1.67115923e-06       97.148517      0.333766933      174.220488   2.04212065e-06     -109.060779
                  1.64803723e-06      88.9650589      0.666238632     -2.89026842   1.41348287e-06      -133.54849      0.333770273      174.219028
20.88                 0.33376283     -179.998986   1.20209453e-06     -92.7464264      0.666235929     -2.89345152   1.10826382e-06      47.1672567
                  1.11217044e-06     -89.5586794      0.333762195     -179.999245   1.54144769e-06      96.5562338      0.666238921     -2.89309268
                     0.666237446     -2.89314894   1.66518554e-06      97.0532942      0.333767018      174.214945   2.03364701e-06     -109.157743
                  1.64273727e-06      88.7762859      0.666238612     -2.89303456   1.40697695e-06     -133.608629      0.333770331       174.21349
20.9                 0.333762833      -179.99899   1.19869428e-06     -92.7351591      0.666235966     -2.89621491   1.10479333e-06      47.1288901
                  1.10908195e-06      -89.549495      0.333762197     -179.999248   1.53711183e-06      96.5321663      0.666238933      -2.8958585
                     0.666237433     -2.89591392   1.65917456e-06        96.95741      0.333767101      174.209402   2.02513751e-06     -109.255079
                  1.63739931e-06      88.5860719      0.666238593     -2.89580071   1.40045381e-06     -133.668802      0.333770388      174.207952
20.92                0.333762836     -179.998994   1.19528021e-06     -92.7236997      0.666236003     -2.89897831   1.10130701e-06      47.0902778
                  1.10598139e-06     -89.5401494        0.3337622     -179.999251   1.53275298e-06      96.5079848      0.666238944     -2.89862432
                     0.666237419     -2.89867891   1.65312598e-06      96.8608579      0.333767184      174.203859     2.016592e-06     -109.352791
                  1.63202304e-06      88.3944011      0.666238573     -2.89856686   1.39391343e-06     -133.729006      0.333770445      174.202414
20.94                0.333762839     -179.998998   1.19185225e-06     -92.7120445      0.666236038     -2.90174172   1.09780476e-06      47.0514172
                  1.10286871e-06     -89.5306399      0.333762203     -179.999254   1.52837092e-06       96.483689      0.666238954     -2.90139016
                     0.666237406     -2.90144391   1.64703946e-06      96.7636313      0.333767267      174.198315   2.00801035e-06     -109.450877
                  1.62660816e-06      88.2012575      0.666238553     -2.90133302   1.38735578e-06     -133.789237        0.3337705      174.196876
20.96                0.333762842     -179.999001    1.1884103e-06       -92.70019      0.666236074     -2.90450515   1.09428646e-06      47.0123057
                  1.09974382e-06     -89.5209634      0.333762205     -179.999257   1.52396547e-06      96.4592787      0.666238965     -2.90415601
                     0.666237392     -2.90420891   1.64091465e-06      96.6657236      0.333767348      174.192772   1.99939238e-06     -109.549339
                  1.62115436e-06       88.006625      0.666238533     -2.90409919   1.38078084e-06     -133.849494      0.333770555      174.191338
20.98                0.333762845     -179.999005   1.18495427e-06     -92.6881322      0.666236109     -2.90726859   1.09075199e-06      46.9729406
                  1.09660665e-06     -89.5111168      0.333762208      -179.99926   1.51953644e-06      96.4347535      0.666238974     -2.90692187